Protein in water
12154
    1DT5    H5T    1   4.437   0.126   0.430  0.4173 -0.7402  0.4128
    1DT5    O5'    2   4.500   0.164   0.492  0.6236  0.1808 -0.3352
    1DT5    C5'    3   4.450   0.284   0.538 -0.6318 -0.1043 -0.6468
    1DT5   H5'1    4   4.386   0.321   0.459  0.5113 -0.6900 -1.8774
    1DT5   H5'2    5   4.536   0.343   0.568 -0.5456 -0.1201 -0.8671
    1DT5    C4'    6   4.355   0.277   0.660  0.5931  0.7641  0.5405
    1DT5    H4'    7   4.342   0.379   0.695  2.7900  1.0749  0.5763
    1DT5    O4'    8   4.233   0.218   0.629 -0.0184  0.7431 -0.0891
    1DT5    C1'    9   4.209   0.122   0.738  0.1430 -0.2132  0.1306
    1DT5    H1'   10   4.169   0.177   0.823  0.9530 -1.6413  1.4903
    1DT5     N1   11   4.114   0.009   0.700  0.4570  0.1940  1.1431
    1DT5     C6   12   4.116  -0.044   0.572 -0.0345 -0.2808  0.3950
    1DT5     H6   13   4.190  -0.004   0.505  1.1665 -0.5115  1.5231
    1DT5     C5   14   4.024  -0.133   0.527 -0.4804 -0.3357  0.3926
    1DT5     C7   15   4.035  -0.183   0.383  0.4252 -0.6804 -0.4421
    1DT5    H71   16   4.045  -0.292   0.381  1.5237 -0.6189  0.4999
    1DT5    H72   17   3.953  -0.135   0.329  0.1144 -0.9688 -0.2282
    1DT5    H73   18   4.132  -0.151   0.345  0.4803 -2.4953 -2.0062
    1DT5     C4   19   3.925  -0.189   0.625 -0.1112 -0.4055  0.1892
    1DT5     O4   20   3.838  -0.272   0.604 -0.0071  0.3792 -0.0032
    1DT5     N3   21   3.929  -0.127   0.749 -0.1518 -0.3534  0.4501
    1DT5     H3   22   3.868  -0.174   0.814  0.1707 -0.7701  0.4595
    1DT5     C2   23   4.022  -0.039   0.793 -1.0283  1.2520 -0.7084
    1DT5     O2   24   4.015   0.003   0.908  0.2121  0.0264 -0.1234
    1DT5    C3'   25   4.428   0.194   0.772  0.4506 -0.2571  0.7597
    1DT5    H3'   26   4.527   0.155   0.750 -0.5251 -1.0603 -3.0167
    1DT5    C2'   27   4.346   0.066   0.771 -1.0658  0.3092  0.2323
    1DT5   H2'1   28   4.378   0.006   0.687  0.8450 -0.5881  1.5332
    1DT5   H2'2   29   4.346   0.009   0.864 -1.2916  0.1623  0.1418
    1DT5    O3'   30   4.429   0.272   0.889  0.6705 -0.1904  0.0294
    2DT3      P   31   4.533   0.397   0.904  0.0814 -0.1923  0.1257
    2DT3    O1P   32   4.461   0.527   0.897 -0.4930 -0.4154  0.8429
    2DT3    O2P   33   4.655   0.377   0.827  0.1215 -0.1436  0.5057
    2DT3    O5'   34   4.569   0.378   1.060  0.3989 -0.3695 -0.0433
    2DT3    C5'   35   4.613   0.252   1.111 -0.0045 -0.0903  0.7501
    2DT3   H5'1   36   4.651   0.189   1.031  0.1297  1.2474 -0.2673
    2DT3   H5'2   37   4.525   0.203   1.155  1.5389 -1.1621  2.8404
    2DT3    C4'   38   4.716   0.267   1.219 -0.6068  0.2882  0.3590
    2DT3    H4'   39   4.745   0.166   1.249 -0.9790  0.5276  1.6196
    2DT3    O4'   40   4.834   0.327   1.181 -0.3290 -0.5667 -0.0822
    2DT3    C1'   41   4.869   0.430   1.272 -0.1373  0.0861  0.0679
    2DT3    H1'   42   4.948   0.391   1.336  2.2416  2.5441 -1.1412
    2DT3     N1   43   4.918   0.551   1.192  0.4086  0.2914 -0.5438
    2DT3     C6   44   4.875   0.569   1.061 -0.4642  0.2381 -0.1669
    2DT3     H6   45   4.791   0.511   1.026 -0.6513 -0.9125  2.0383
    2DT3     C5   46   4.937   0.670   0.979 -0.1906  0.4760 -0.0404
    2DT3     C7   47   4.886   0.697   0.835 -0.4264 -0.3258  0.0232
    2DT3    H71   48   4.778   0.709   0.846 -0.4465  0.2276 -0.6969
    2DT3    H72   49   4.925   0.792   0.798  1.7770 -1.8704 -1.9234
    2DT3    H73   50   4.899   0.615   0.764 -0.7944  0.3986 -0.9049
    2DT3     C4   51   5.047   0.750   1.030  0.3437  0.4136  0.0554
    2DT3     O4   52   5.127   0.819   0.974 -0.7510  0.2189 -0.1168
    2DT3     N3   53   5.066   0.734   1.163 -0.1937 -0.3177 -0.1518
    2DT3     H3   54   5.143   0.789   1.198  1.1365 -1.9287 -0.4487
    2DT3     C2   55   5.020   0.637   1.246  0.0783 -0.4749 -0.5524
    2DT3     O2   56   5.052   0.638   1.366 -0.3406 -0.5253 -0.7619
    2DT3    C3'   57   4.658   0.340   1.342  0.1569 -1.3230 -0.8042
    2DT3    H3'   58   4.557   0.376   1.323 -0.7264 -2.1116  1.9839
    2DT3    C2'   59   4.746   0.467   1.351  0.2524 -0.6688 -0.0227
    2DT3   H2'1   60   4.699   0.557   1.312 -1.4596 -1.5575 -0.1206
    2DT3   H2'2   61   4.778   0.479   1.455 -0.1937 -1.0314  0.1610
    2DT3    O3'   62   4.670   0.270   1.469 -0.3521 -0.4583  0.0384
    2DT3    H3T   63   4.764   0.272   1.486 -0.4957  0.6518  0.8371
    3SOL     OW   64   0.362   4.114   0.137 -0.6673 -0.2039  0.4912
    3SOL    HW1   65   0.367   4.086   0.046 -0.4986 -0.3203  0.5363
    3SOL    HW2   66   0.372   4.210   0.133 -0.9931 -0.1764  0.3607
    4SOL     OW   67   4.680   3.398   2.623 -0.4034 -0.1272 -0.3525
    4SOL    HW1   68   4.720   3.359   2.545 -0.2190  1.3240 -1.0218
    4SOL    HW2   69   4.749   3.397   2.689  0.4169  1.3096 -1.1443
    5SOL     OW   70   0.950   0.578   1.256  0.4796 -0.4667  0.6254
    5SOL    HW1   71   0.969   0.602   1.347  0.9497 -3.4085  1.4152
    5SOL    HW2   72   1.033   0.589   1.210  0.8964 -1.2850  1.1541
    6SOL     OW   73   3.358   1.310   0.740 -0.6822  0.0294  0.6785
    6SOL    HW1   74   3.302   1.381   0.772 -0.4464  0.6266 -0.2145
    6SOL    HW2   75   3.390   1.267   0.820 -2.3390 -0.2884  1.2215
    7SOL     OW   76   3.420   2.624   1.996  0.0515  0.4812 -0.1322
    7SOL    HW1   77   3.482   2.591   2.061 -0.0786 -0.6570 -0.5565
    7SOL    HW2   78   3.427   2.719   2.002  1.5973  0.3833  0.0466
    8SOL     OW   79   3.138   1.868   3.478 -0.0917 -0.2437  0.0638
    8SOL    HW1   80   3.120   1.774   3.476 -2.7834  0.2123 -0.4365
    8SOL    HW2   81   3.164   1.889   3.388  2.3355 -0.7524  0.5830
    9SOL     OW   82   3.422   3.128   1.400 -0.3365  0.0092 -0.0438
    9SOL    HW1   83   3.431   3.102   1.492 -0.0399  0.2941  0.0083
    9SOL    HW2   84   3.442   3.222   1.399  0.5306 -0.1679 -0.5334
   10SOL     OW   85   3.491   3.688   3.124 -0.7262  0.8003 -0.0745
   10SOL    HW1   86   3.454   3.757   3.068 -1.1480 -0.5003 -1.4380
   10SOL    HW2   87   3.495   3.611   3.069  2.1450  0.3183  0.6442
   11SOL     OW   88   3.178   2.432   0.806 -0.2134 -0.3447 -0.4536
   11SOL    HW1   89   3.088   2.446   0.837  0.4522  0.7236  1.1178
   11SOL    HW2   90   3.194   2.506   0.747 -0.0912 -0.0748 -0.0840
   12SOL     OW   91   0.413   1.215   2.500  0.4078 -0.6090  0.0224
   12SOL    HW1   92   0.504   1.241   2.507  0.1946 -0.3045  2.4621
   12SOL    HW2   93   0.415   1.119   2.503  0.6585 -0.6224 -0.4408
   13SOL     OW   94   1.952   0.544   1.101 -0.0573 -0.2140 -0.2841
   13SOL    HW1   95   2.015   0.609   1.132 -0.1287  0.8288 -2.1365
   13SOL    HW2   96   1.907   0.588   1.028 -2.1753 -1.3143  0.2784
   14SOL     OW   97   1.086   4.018   3.719 -0.1175  0.2210 -0.0178
   14SOL    HW1   98   1.120   3.964   3.791  0.3791 -1.4832 -1.4474
   14SOL    HW2   99   1.164   4.056   3.679 -0.5061  2.7412  1.4308
   15SOL     OW  100   1.014   1.002   0.657  0.4997 -0.1696 -0.2334
   15SOL    HW1  101   1.109   1.014   0.648  0.3958  1.4677  0.4755
   15SOL    HW2  102   0.981   1.001   0.567  1.2382 -1.3538 -0.5066
   16SOL     OW  103   2.203   4.022   3.527 -0.0470  0.2368 -0.0811
   16SOL    HW1  104   2.109   4.024   3.510  0.0813  0.7687 -0.8250
   16SOL    HW2  105   2.231   3.935   3.499 -0.1741  0.4072 -0.7581
   17SOL     OW  106   0.452   0.428   2.920 -0.4405  0.1812  0.3137
   17SOL    HW1  107   0.407   0.386   2.847 -0.6405 -2.4878  1.8398
   17SOL    HW2  108   0.398   0.407   2.997  1.2987  0.3026  1.6376
   18SOL     OW  109   0.319   3.842   2.624  0.3158  0.0762  0.2114
   18SOL    HW1  110   0.242   3.791   2.600 -1.0684  1.2515  1.9361
   18SOL    HW2  111   0.321   3.840   2.720 -0.3258  3.8202  0.4726
   19SOL     OW  112   1.478   4.577   4.771 -0.1041 -0.4135 -0.7857
   19SOL    HW1  113   1.505   4.609   4.857 -1.0245 -1.5919 -0.0327
   19SOL    HW2  114   1.455   4.656   4.722 -2.1973  0.1712  0.9704
   20SOL     OW  115   0.007   0.552   3.263  0.4417 -0.1441 -0.4028
   20SOL    HW1  116   0.051   0.637   3.260 -1.3146  0.8946  0.8197
   20SOL    HW2  117  -0.021   0.535   3.173  1.2494  0.3319 -0.7455
   21SOL     OW  118   1.848   2.779   0.820  0.0989  0.2862  0.3352
   21SOL    HW1  119   1.929   2.828   0.806  0.6838  0.0347  2.4944
   21SOL    HW2  120   1.805   2.825   0.892 -1.4456  0.1032 -0.4375
   22SOL     OW  121   0.160   4.353   2.407  0.2754 -0.7219  0.0043
   22SOL    HW1  122   0.181   4.262   2.430  2.5729 -0.2521  0.0473
   22SOL    HW2  123   0.228   4.405   2.450  0.0295  0.8819 -1.4062
   23SOL     OW  124   0.289   3.893   0.267  0.1358 -0.6309 -0.6199
   23SOL    HW1  125   0.200   3.923   0.282  0.4305 -0.1176  0.1599
   23SOL    HW2  126   0.328   3.961   0.211  0.6761  0.2559  0.8007
   24SOL     OW  127   3.558   1.394   3.607 -0.0152 -0.0831  0.2290
   24SOL    HW1  128   3.490   1.359   3.664 -0.9155  1.2773  0.0554
   24SOL    HW2  129   3.561   1.334   3.532  0.6269 -1.4368  1.2974
   25SOL     OW  130   2.269   0.001   3.264  0.1693 -0.5200  0.0273
   25SOL    HW1  131   2.266  -0.005   3.168  0.4350 -0.9666  0.0416
   25SOL    HW2  132   2.284   0.093   3.282  0.2765 -0.4559 -0.3711
   26SOL     OW  133   3.430   0.866   2.799  0.4414 -0.6240  1.0434
   26SOL    HW1  134   3.470   0.953   2.802 -0.3501 -0.2695  1.5409
   26SOL    HW2  135   3.505   0.806   2.802  1.0243  0.0309  0.0819
   27SOL     OW  136   2.458   0.702   1.832 -0.6280  0.3610  0.0097
   27SOL    HW1  137   2.402   0.686   1.756 -1.2727 -0.3932  0.6342
   27SOL    HW2  138   2.537   0.649   1.814 -0.8736  0.0041 -0.0290
   28SOL     OW  139   4.609   3.821   0.569 -0.1477  0.5845 -0.2560
   28SOL    HW1  140   4.626   3.730   0.546  0.1031 -0.1476  2.5345
   28SOL    HW2  141   4.635   3.871   0.491  2.4276 -1.4836 -0.8375
   29SOL     OW  142   1.062   2.853   2.635  0.1896  0.1547 -0.4683
   29SOL    HW1  143   0.998   2.914   2.597  0.8022  0.3495 -1.2080
   29SOL    HW2  144   1.146   2.881   2.598  0.8285  0.3926  1.1018
   30SOL     OW  145   3.732   3.259   4.950  0.3355  0.2071 -0.2056
   30SOL    HW1  146   3.684   3.244   4.869 -1.4125 -0.3296  0.8645
   30SOL    HW2  147   3.705   3.187   5.008  1.1394  0.8418  1.0061
   31SOL     OW  148   3.614   3.523   3.319  0.2118 -0.0230  0.7362
   31SOL    HW1  149   3.687   3.556   3.266  0.2174  2.4566  2.1080
   31SOL    HW2  150   3.541   3.583   3.298 -0.9320 -1.3817  0.6958
   32SOL     OW  151   2.669   1.079   1.383  0.2805 -0.2966  0.1105
   32SOL    HW1  152   2.642   1.022   1.455  0.3190 -0.1182  0.2674
   32SOL    HW2  153   2.591   1.130   1.362  0.0585 -0.8721 -0.4722
   33SOL     OW  154   0.142   1.191   3.670  0.0612 -0.3770 -0.0723
   33SOL    HW1  155   0.092   1.200   3.588 -0.0415 -1.0513 -0.0931
   33SOL    HW2  156   0.142   1.096   3.687  1.1641 -0.3610  0.0370
   34SOL     OW  157   1.564   0.426   2.329 -0.1298 -0.0741  0.0309
   34SOL    HW1  158   1.621   0.412   2.404  1.4260 -0.7163 -1.2119
   34SOL    HW2  159   1.512   0.504   2.352 -0.6098 -0.9829  2.2426
   35SOL     OW  160   3.304   3.830   0.187  0.0373  0.2767 -0.5352
   35SOL    HW1  161   3.334   3.853   0.099 -0.6560 -1.9461 -1.4400
   35SOL    HW2  162   3.363   3.760   0.215 -0.4935  0.1224  0.2419
   36SOL     OW  163   0.769   3.825   4.291 -0.4057 -0.1067  0.1768
   36SOL    HW1  164   0.709   3.833   4.365 -1.3395 -0.0254 -0.5801
   36SOL    HW2  165   0.781   3.731   4.280 -1.6520 -0.1789 -0.6611
   37SOL     OW  166   2.617   0.622   1.103  0.3417 -0.2513 -0.2979
   37SOL    HW1  167   2.657   0.567   1.035 -0.2597 -0.2769 -0.6402
   37SOL    HW2  168   2.669   0.605   1.181  0.0612 -1.4476 -0.3548
   38SOL     OW  169   0.652   1.303   2.522 -1.0271  0.3272  0.1291
   38SOL    HW1  170   0.675   1.352   2.443 -1.9085  0.5412 -0.0023
   38SOL    HW2  171   0.734   1.262   2.549 -0.5478  0.8750 -0.4602
   39SOL     OW  172   2.979   2.120   2.401  0.4840  0.0774 -0.0316
   39SOL    HW1  173   3.043   2.137   2.332  0.0928  2.4930  0.1306
   39SOL    HW2  174   2.895   2.118   2.356  0.3659  0.1878  0.1808
   40SOL     OW  175   0.358   3.981   0.800 -0.6344 -0.3218 -0.3535
   40SOL    HW1  176   0.411   3.946   0.872  0.3717  0.1157 -0.8661
   40SOL    HW2  177   0.269   3.983   0.836  0.1321  1.9760  1.7352
   41SOL     OW  178   4.659   2.837   0.677 -0.5501 -0.4053 -0.3973
   41SOL    HW1  179   4.570   2.808   0.699 -0.4707 -0.3296  0.0459
   41SOL    HW2  180   4.684   2.784   0.602 -1.5787  0.6902 -1.5757
   42SOL     OW  181   1.197   2.573   3.111  0.2928 -0.6966 -0.2619
   42SOL    HW1  182   1.161   2.508   3.050 -1.5220  0.8095 -0.8823
   42SOL    HW2  183   1.278   2.603   3.070  0.8880 -2.1466 -0.2131
   43SOL     OW  184   2.860   4.212   1.896  0.5447  0.2449  0.5147
   43SOL    HW1  185   2.784   4.251   1.854 -0.5095  1.0811  2.9902
   43SOL    HW2  186   2.855   4.119   1.874 -0.0296  0.6188 -1.0037
   44SOL     OW  187   4.867   3.219   0.897 -0.1391 -0.4660 -0.3646
   44SOL    HW1  188   4.833   3.169   0.971  0.5822 -1.5553 -0.7407
   44SOL    HW2  189   4.800   3.209   0.829 -1.3724  1.5149  0.4682
   45SOL     OW  190   4.405   2.742   0.697  0.6000 -0.3003  0.0598
   45SOL    HW1  191   4.363   2.775   0.618  0.9229 -1.7544 -0.7758
   45SOL    HW2  192   4.357   2.781   0.769 -0.2753  0.3727 -0.8640
   46SOL     OW  193   0.450   4.224   2.634  0.4731 -0.0186 -0.5997
   46SOL    HW1  194   0.369   4.217   2.582 -2.6504  0.5758  3.6770
   46SOL    HW2  195   0.477   4.315   2.623 -0.9845  0.4990 -0.1404
   47SOL     OW  196   3.871   4.850   3.717  0.3457  0.1902 -0.1362
   47SOL    HW1  197   3.872   4.760   3.684 -0.9736  0.5315 -1.2162
   47SOL    HW2  198   3.888   4.904   3.640  0.8785  0.8775  0.4570
   48SOL     OW  199   3.168   2.584   3.310 -0.2255 -0.5258 -0.6040
   48SOL    HW1  200   3.145   2.642   3.383  1.3710  0.1257 -0.5852
   48SOL    HW2  201   3.221   2.515   3.350 -0.0522 -0.6349 -1.0170
   49SOL     OW  202   3.858   0.923   1.792  0.1669  0.0501  0.0015
   49SOL    HW1  203   3.771   0.926   1.832  0.5027 -0.2337  0.7608
   49SOL    HW2  204   3.912   0.979   1.847  1.3062 -2.4575  1.6596
   50SOL     OW  205   2.405   3.066   4.204 -0.3241 -0.2224  0.5386
   50SOL    HW1  206   2.328   3.011   4.187  0.9411 -2.1121  0.5649
   50SOL    HW2  207   2.449   3.073   4.119 -0.0624  0.0776  0.6966
   51SOL     OW  208   0.826   2.954   3.096 -0.8338  0.0912  0.0643
   51SOL    HW1  209   0.803   3.047   3.105 -2.7821 -0.3758  0.5109
   51SOL    HW2  210   0.920   2.951   3.112 -0.7336  1.9715  0.1335
   52SOL     OW  211   3.955   3.866   1.401 -0.1732  0.1061 -0.0685
   52SOL    HW1  212   3.902   3.790   1.379 -0.5372  0.7587 -1.5642
   52SOL    HW2  213   3.894   3.927   1.443 -0.2328  0.1824 -0.2643
   53SOL     OW  214   1.349   1.452   4.175 -0.0460  0.4182 -0.0773
   53SOL    HW1  215   1.334   1.543   4.199  1.4457  0.4150  1.0298
   53SOL    HW2  216   1.416   1.456   4.106  1.2916  0.1567  1.1359
   54SOL     OW  217   1.539   2.924   0.088  0.2378 -0.3321  0.0577
   54SOL    HW1  218   1.446   2.938   0.102  0.1419 -1.6943  1.0066
   54SOL    HW2  219   1.575   3.012   0.077 -1.2085  0.1937 -0.7840
   55SOL     OW  220   1.060   0.415   2.222  0.1449 -0.2543 -0.4171
   55SOL    HW1  221   1.101   0.383   2.302  2.0977  1.4320 -0.6410
   55SOL    HW2  222   1.129   0.408   2.156 -1.2341 -1.0245 -1.8273
   56SOL     OW  223   0.838   3.289   1.638 -0.3979  0.1515  0.3740
   56SOL    HW1  224   0.781   3.252   1.706  0.6355  0.5924  1.5296
   56SOL    HW2  225   0.926   3.260   1.663 -0.2047 -2.0675 -2.3828
   57SOL     OW  226   1.008   4.176   0.598  0.3087  0.5887  0.3724
   57SOL    HW1  227   0.940   4.215   0.654 -0.6967 -0.5500 -0.0085
   57SOL    HW2  228   0.962   4.150   0.519  0.5049 -2.7355  1.1762
   58SOL     OW  229   1.401   0.856   4.249  0.0740 -0.4386 -0.2017
   58SOL    HW1  230   1.339   0.909   4.198 -0.5082  0.8030  1.7112
   58SOL    HW2  231   1.480   0.910   4.254  0.9424 -1.5096 -1.6132
   59SOL     OW  232   3.007   1.698   2.672  0.1802  0.0002 -0.6049
   59SOL    HW1  233   3.052   1.735   2.596 -1.1571 -0.7111 -1.8072
   59SOL    HW2  234   2.967   1.618   2.639 -3.6450  1.5378 -0.2353
   60SOL     OW  235   4.296   2.971   3.913  0.2186 -0.1794  0.2170
   60SOL    HW1  236   4.375   2.932   3.875  0.2340  0.5053 -0.4861
   60SOL    HW2  237   4.242   2.994   3.838  0.6716  2.0958  0.5091
   61SOL     OW  238   1.938   0.855   3.833 -0.0550 -0.2124 -0.1517
   61SOL    HW1  239   2.025   0.823   3.858  0.0168 -0.1366 -0.3016
   61SOL    HW2  240   1.945   0.873   3.739  0.4298  1.8357  0.2114
   62SOL     OW  241   4.828   4.686   0.527 -0.1014 -0.2973  0.0305
   62SOL    HW1  242   4.766   4.649   0.589  0.9468  0.4929  1.5963
   62SOL    HW2  243   4.914   4.660   0.560  0.5759  1.9567  0.1660
   63SOL     OW  244   4.035   0.489   3.148  0.0999  0.2931 -0.3323
   63SOL    HW1  245   4.110   0.528   3.193  1.5796  0.2322 -2.5513
   63SOL    HW2  246   3.995   0.431   3.213  1.9916  0.3156  0.9335
   64SOL     OW  247   1.116   0.546   2.852  0.2462 -0.3569  0.3675
   64SOL    HW1  248   1.211   0.537   2.845  0.0665 -2.4715  0.0135
   64SOL    HW2  249   1.100   0.556   2.946  0.8124 -0.2611  0.4564
   65SOL     OW  250   2.522   3.494   0.935 -0.4043  0.4860 -0.2732
   65SOL    HW1  251   2.587   3.552   0.894  0.3116 -1.5965 -2.3102
   65SOL    HW2  252   2.439   3.520   0.895 -0.2288  0.6736 -0.5220
   66SOL     OW  253   0.602   3.378   1.825  0.4172  0.0691  0.0087
   66SOL    HW1  254   0.690   3.405   1.852 -0.1263  0.9950  0.9257
   66SOL    HW2  255   0.555   3.460   1.811  0.3247 -0.3403 -2.8066
   67SOL     OW  256   1.960   3.490   3.056 -0.3983  0.6152  0.2461
   67SOL    HW1  257   1.892   3.542   3.012 -1.4978  0.3389  1.5407
   67SOL    HW2  258   2.042   3.520   3.017 -1.2467  1.0251 -1.3171
   68SOL     OW  259   2.432   3.437   0.546 -0.1197 -0.4504  0.0480
   68SOL    HW1  260   2.402   3.487   0.622  0.5164 -1.5555  1.0541
   68SOL    HW2  261   2.402   3.488   0.471 -0.6482  0.7425  1.0304
   69SOL     OW  262   3.777   3.375   0.946  0.1862  0.1814 -0.1482
   69SOL    HW1  263   3.868   3.398   0.965 -0.0632 -0.1828  1.7816
   69SOL    HW2  264   3.729   3.458   0.958  0.0876  0.0496  0.4169
   70SOL     OW  265   2.945   3.591   2.178  0.5094 -0.6180  0.3761
   70SOL    HW1  266   2.942   3.521   2.112  2.7771 -0.0395 -0.4292
   70SOL    HW2  267   2.853   3.609   2.197 -0.2199 -1.4448 -1.9562
   71SOL     OW  268   0.579   3.807   4.491 -0.0234  0.1067 -0.0027
   71SOL    HW1  269   0.571   3.724   4.537 -0.9721  0.2139  0.0371
   71SOL    HW2  270   0.519   3.866   4.536  0.2912  0.6806 -0.3224
   72SOL     OW  271   2.582   0.630   2.193  1.0728 -0.4107 -0.0188
   72SOL    HW1  272   2.529   0.701   2.157 -0.2646 -2.1863 -1.7514
   72SOL    HW2  273   2.554   0.622   2.284  1.1437  1.1568  0.1638
   73SOL     OW  274   0.822   4.265   3.916  0.4456 -0.0399  0.3190
   73SOL    HW1  275   0.811   4.356   3.947  1.0124  0.2575 -0.3284
   73SOL    HW2  276   0.771   4.261   3.835  1.3137  0.0322 -0.2463
   74SOL     OW  277   1.206   3.819   1.025  0.0016  0.3869  0.4785
   74SOL    HW1  278   1.268   3.747   1.039 -0.9669 -0.9087 -1.4734
   74SOL    HW2  279   1.146   3.815   1.100  1.3928  0.7814  1.6630
   75SOL     OW  280   3.327   2.955   4.830 -0.6230  0.0891 -0.5026
   75SOL    HW1  281   3.258   2.890   4.813 -0.5502  0.0341 -0.5846
   75SOL    HW2  282   3.404   2.904   4.852 -0.9105  0.1680  0.7662
   76SOL     OW  283   4.102   4.452   0.253 -0.4650  0.0268  0.2771
   76SOL    HW1  284   4.155   4.379   0.223 -0.2747 -0.0050  0.6827
   76SOL    HW2  285   4.106   4.516   0.181  3.0653  1.5801  1.6381
   77SOL     OW  286   2.984   3.250   3.473  0.1036  0.0837  0.5075
   77SOL    HW1  287   3.036   3.320   3.434 -1.3876  0.3432 -1.1386
   77SOL    HW2  288   2.916   3.295   3.523 -0.9557 -0.1080 -0.6823
   78SOL     OW  289   1.952   0.886   4.687 -0.3596  0.1623 -0.1272
   78SOL    HW1  290   1.856   0.887   4.690 -0.3578 -0.1921  0.0925
   78SOL    HW2  291   1.976   0.977   4.668 -0.7566  0.1316 -0.8104
   79SOL     OW  292   2.735   4.217   4.011 -0.6853  0.1262  0.0571
   79SOL    HW1  293   2.714   4.302   4.048 -0.7744 -0.2175  0.8082
   79SOL    HW2  294   2.808   4.185   4.063 -1.2092 -0.6302  0.3497
   80SOL     OW  295   4.936   4.214   0.306  0.0062  0.0235 -0.0071
   80SOL    HW1  296   5.006   4.214   0.371  0.9964  0.5884 -1.0222
   80SOL    HW2  297   4.981   4.236   0.224 -1.5826  1.7499 -0.4602
   81SOL     OW  298   4.369   1.170   1.972  0.3923  0.4792  0.1555
   81SOL    HW1  299   4.321   1.250   1.992  0.2345  0.4174  0.0276
   81SOL    HW2  300   4.304   1.100   1.980  0.3627  0.4352 -0.3903
   82SOL     OW  301   4.943   0.633   3.526 -0.2894 -0.0497  0.0744
   82SOL    HW1  302   4.959   0.598   3.438 -0.7692  0.6071 -0.2921
   82SOL    HW2  303   5.021   0.610   3.576  1.0369  1.5073 -1.1435
   83SOL     OW  304   1.217   4.436   3.931 -0.1580 -0.6590 -0.3056
   83SOL    HW1  305   1.234   4.425   4.025  1.9827 -2.1978 -0.7828
   83SOL    HW2  306   1.250   4.523   3.911  1.3475 -1.1012  0.0592
   84SOL     OW  307   1.676   4.936   0.796  0.1506  0.2995  0.1911
   84SOL    HW1  308   1.607   4.920   0.860  1.2548  0.3559  1.4616
   84SOL    HW2  309   1.642   5.004   0.739 -0.0010  1.9924  2.1960
   85SOL     OW  310   1.714   0.289   3.875 -0.5847  0.5610  0.1075
   85SOL    HW1  311   1.786   0.275   3.936  0.4279 -1.7704 -1.4417
   85SOL    HW2  312   1.650   0.220   3.897 -1.2783  1.1540 -0.0069
   86SOL     OW  313   1.317   2.700   2.078  0.0880  0.1099 -0.0095
   86SOL    HW1  314   1.329   2.605   2.084 -0.0250 -0.0386 -1.6943
   86SOL    HW2  315   1.227   2.715   2.108  0.0253 -0.3301  0.0330
   87SOL     OW  316   2.851   2.264   0.521 -0.2009  0.2333  0.3103
   87SOL    HW1  317   2.830   2.200   0.453 -0.6334 -1.9142  2.3384
   87SOL    HW2  318   2.771   2.316   0.530 -0.5766 -0.2870  0.0339
   88SOL     OW  319   4.117   1.957   3.238  0.0818  0.4894  0.0642
   88SOL    HW1  320   4.074   1.911   3.311  0.6824 -0.3206 -0.0800
   88SOL    HW2  321   4.211   1.948   3.256  0.3070 -1.3360 -1.7555
   89SOL     OW  322   3.901   1.084   1.329 -0.0661 -0.6690  0.3217
   89SOL    HW1  323   3.942   1.047   1.406 -0.8955  0.4429  1.3415
   89SOL    HW2  324   3.969   1.138   1.289 -0.3223  0.7617  1.7148
   90SOL     OW  325   0.837   1.570   1.381  0.0777  0.0479 -0.0857
   90SOL    HW1  326   0.901   1.629   1.421 -3.8101  3.1462  2.2877
   90SOL    HW2  327   0.837   1.593   1.288  1.9621  0.2897 -0.0562
   91SOL     OW  328   4.491   0.800   0.409  0.4710  0.3205  0.6607
   91SOL    HW1  329   4.481   0.895   0.404 -0.3874  0.2389  0.5439
   91SOL    HW2  330   4.556   0.785   0.477  0.4402  0.9895  0.8387
   92SOL     OW  331   2.598   4.252   0.001 -0.2899  0.4051 -0.3794
   92SOL    HW1  332   2.678   4.219   0.042  0.0956  0.3135 -1.1857
   92SOL    HW2  333   2.529   4.238   0.067  0.2038 -0.2956 -0.0030
   93SOL     OW  334   1.209   0.935   2.774 -0.7554 -0.0957 -0.3566
   93SOL    HW1  335   1.161   0.949   2.693  0.3482  0.6808 -0.9017
   93SOL    HW2  336   1.227   0.841   2.775 -1.6644 -0.2816 -0.4798
   94SOL     OW  337   0.681   0.730   1.458  0.0792  0.6400 -0.0963
   94SOL    HW1  338   0.730   0.720   1.540 -0.6708 -0.1553  0.2792
   94SOL    HW2  339   0.694   0.821   1.433  0.2339  0.9339  0.9831
   95SOL     OW  340   3.371   4.907   1.566  0.0016  0.7888 -0.1143
   95SOL    HW1  341   3.336   4.983   1.520  0.3899  0.2971 -1.2513
   95SOL    HW2  342   3.449   4.940   1.611 -0.3813  1.2758  0.2005
   96SOL     OW  343   2.722   0.813   4.028 -0.3866 -0.9063  0.0137
   96SOL    HW1  344   2.779   0.875   4.074 -0.8857 -0.8224  0.5334
   96SOL    HW2  345   2.779   0.740   4.004 -0.2788 -1.3752  1.5777
   97SOL     OW  346   4.694   1.987   3.516  0.2605 -0.6173 -0.3429
   97SOL    HW1  347   4.659   2.065   3.558  0.0733 -0.3264 -1.0262
   97SOL    HW2  348   4.738   2.020   3.438  0.8771 -1.1179 -0.2186
   98SOL     OW  349   2.991   4.175   2.152  0.7703 -0.1886 -0.1083
   98SOL    HW1  350   2.951   4.227   2.222 -0.2913 -1.9747  0.6877
   98SOL    HW2  351   2.922   4.168   2.086  0.7367 -0.9555  0.0030
   99SOL     OW  352   0.525   1.673   0.591 -0.6410  0.1603 -0.3360
   99SOL    HW1  353   0.447   1.663   0.536 -0.7763 -0.2276 -0.0813
   99SOL    HW2  354   0.519   1.601   0.654 -1.5028  1.7069  1.4370
  100SOL     OW  355   1.531   0.816   3.441 -0.1115 -0.1333 -0.6060
  100SOL    HW1  356   1.512   0.869   3.519 -3.9122  0.2885 -1.5829
  100SOL    HW2  357   1.625   0.824   3.428  0.0858  3.0232  1.6605
  101SOL     OW  358   3.596   3.591   0.820  0.2413 -0.0988  0.0966
  101SOL    HW1  359   3.528   3.530   0.847 -0.7192  1.1873  0.6938
  101SOL    HW2  360   3.550   3.673   0.800  1.3281  0.0924 -1.9686
  102SOL     OW  361   2.200   4.941   2.369  0.4035  0.1423 -0.3501
  102SOL    HW1  362   2.276   4.922   2.314  1.9378  1.1276  1.3318
  102SOL    HW2  363   2.147   4.861   2.365  1.1934 -0.3416 -2.0518
  103SOL     OW  364   0.733   0.972   1.371  0.4447 -0.1635 -0.5154
  103SOL    HW1  365   0.648   1.015   1.365 -0.4135 -1.6982  0.0303
  103SOL    HW2  366   0.777   1.015   1.445 -0.9581 -1.1276  0.9312
  104SOL     OW  367   4.415   0.686   2.321 -0.5409 -0.3272  0.0049
  104SOL    HW1  368   4.383   0.777   2.327 -2.4668 -0.9842  0.3086
  104SOL    HW2  369   4.403   0.651   2.409 -1.0230 -1.2442 -0.4178
  105SOL     OW  370   2.432   0.037   4.182  0.1721 -0.7970 -0.0907
  105SOL    HW1  371   2.386  -0.040   4.148  0.0111 -1.3808  1.3814
  105SOL    HW2  372   2.477   0.073   4.106 -2.6478 -0.2036 -1.6214
  106SOL     OW  373   1.504   3.713   0.964 -0.4404  0.1104 -0.1291
  106SOL    HW1  374   1.519   3.657   0.888 -2.2083 -0.6037 -0.0149
  106SOL    HW2  375   1.443   3.663   1.019 -0.5864  1.3505  0.8979
  107SOL     OW  376   1.300   1.797   1.627 -0.2604 -0.0116  0.1152
  107SOL    HW1  377   1.359   1.738   1.674  0.0869  0.5202  0.3541
  107SOL    HW2  378   1.347   1.880   1.623 -0.5123  0.1015 -0.7031
  108SOL     OW  379   0.598   1.293   3.781  0.2037  0.2976  0.2415
  108SOL    HW1  380   0.677   1.340   3.810 -0.8747  1.6857  1.0368
  108SOL    HW2  381   0.632   1.226   3.721  2.1668 -0.3976  1.9969
  109SOL     OW  382   0.380   1.241   0.100  0.1524 -0.0198  0.1934
  109SOL    HW1  383   0.384   1.146   0.088 -2.2210 -0.0936 -0.5279
  109SOL    HW2  384   0.441   1.259   0.171  0.9879 -2.0180  0.0359
  110SOL     OW  385   2.826   4.424   2.590 -0.2755  0.5194 -0.1476
  110SOL    HW1  386   2.915   4.399   2.617 -0.7417 -0.4688  0.5566
  110SOL    HW2  387   2.773   4.346   2.609 -0.9048  0.2386 -2.6810
  111SOL     OW  388   3.063   3.452   3.758  0.1215 -0.2440  0.1947
  111SOL    HW1  389   3.155   3.463   3.735  0.4184  0.3497  1.5398
  111SOL    HW2  390   3.063   3.453   3.854 -1.4749  1.6662  0.2416
  112SOL     OW  391   4.176   2.574   3.474  0.6414 -0.0920 -0.2394
  112SOL    HW1  392   4.260   2.613   3.448  0.9795 -0.6420  0.0193
  112SOL    HW2  393   4.198   2.487   3.505  0.0759  0.0611  0.6266
  113SOL     OW  394   3.872   0.428   0.344  0.2865 -0.0921 -0.0179
  113SOL    HW1  395   3.945   0.490   0.346 -0.2515  0.7777  4.6964
  113SOL    HW2  396   3.907   0.347   0.382 -0.6394 -0.4015  0.2127
  114SOL     OW  397   2.775   2.873   3.885 -0.2761  0.0574 -0.1321
  114SOL    HW1  398   2.785   2.937   3.956  1.5047  0.5305 -0.7653
  114SOL    HW2  399   2.712   2.810   3.919  0.1650  0.5363  1.6797
  115SOL     OW  400   1.695   1.293   3.465  0.7543 -0.0999  0.3774
  115SOL    HW1  401   1.690   1.388   3.479 -1.0088  0.0610 -0.8998
  115SOL    HW2  402   1.689   1.283   3.370  0.2942 -1.5084  0.5375
  116SOL     OW  403   1.221   4.774   0.441 -0.2249 -0.4238  0.0886
  116SOL    HW1  404   1.139   4.822   0.435 -0.7463 -1.3765 -0.6300
  116SOL    HW2  405   1.289   4.841   0.431 -0.9098  0.3305  0.4018
  117SOL     OW  406   0.039   3.730   1.522 -0.0591 -0.2769 -0.0751
  117SOL    HW1  407  -0.046   3.690   1.507 -0.2131 -0.3232  0.8534
  117SOL    HW2  408   0.081   3.730   1.436  0.3184 -3.2900  0.0073
  118SOL     OW  409   4.601   3.153   0.100  0.2902 -0.1546 -0.8622
  118SOL    HW1  410   4.625   3.071   0.144 -3.0248  0.4719  2.6060
  118SOL    HW2  411   4.685   3.187   0.067  2.5781 -2.5556  1.8749
  119SOL     OW  412   1.602   3.538   3.848  0.1462 -0.0388 -0.0077
  119SOL    HW1  413   1.632   3.462   3.898 -0.5378 -0.6791 -0.5446
  119SOL    HW2  414   1.681   3.577   3.812  0.3936 -1.4905 -1.1115
  120SOL     OW  415   4.170   0.566   4.453  0.9426 -0.3791 -0.3949
  120SOL    HW1  416   4.233   0.617   4.401  0.5123  0.5324 -0.0347
  120SOL    HW2  417   4.205   0.569   4.542  0.1956  0.4533 -0.1234
  121SOL     OW  418   4.397   0.560   2.557 -0.3109  0.5811 -0.1100
  121SOL    HW1  419   4.470   0.509   2.522 -1.0101  0.2344 -1.1140
  121SOL    HW2  420   4.426   0.587   2.644  0.7583 -0.0818 -0.2411
  122SOL     OW  421   2.438   1.721   0.181  0.1283  0.4196 -0.0195
  122SOL    HW1  422   2.411   1.634   0.211  2.5741 -0.2256  0.5872
  122SOL    HW2  423   2.399   1.730   0.094 -0.7722 -0.9644  0.2121
  123SOL     OW  424   1.258   0.643   3.444  0.1986 -0.4251  0.4992
  123SOL    HW1  425   1.340   0.692   3.432 -0.9574  1.4684 -0.1650
  123SOL    HW2  426   1.285   0.552   3.449  2.4952  0.2503  1.8422
  124SOL     OW  427   3.621   0.965   0.009 -0.1200 -0.4709  0.0535
  124SOL    HW1  428   3.659   0.886  -0.031 -1.9759 -0.6240 -1.5630
  124SOL    HW2  429   3.563   0.931   0.078  0.0835 -0.4304  0.2465
  125SOL     OW  430   4.020   4.847   2.746 -0.0091 -0.1231 -0.5745
  125SOL    HW1  431   4.046   4.910   2.814 -1.5329 -1.6900  1.5854
  125SOL    HW2  432   3.925   4.840   2.755  0.0224 -2.0537 -1.3908
  126SOL     OW  433   1.222   0.259   0.489  0.6189  0.0159 -0.2583
  126SOL    HW1  434   1.305   0.302   0.510 -0.4808  1.4166  1.5882
  126SOL    HW2  435   1.182   0.314   0.422 -0.0155  0.9947  0.8712
  127SOL     OW  436   3.916   3.683   3.412  0.0129  0.2128 -0.4045
  127SOL    HW1  437   3.857   3.663   3.484  2.1768  1.4419  1.8723
  127SOL    HW2  438   3.927   3.778   3.415  1.6234  0.0887 -1.1053
  128SOL     OW  439   0.476   3.781   4.921 -0.2224  0.3519 -0.0179
  128SOL    HW1  440   0.468   3.736   5.005  3.1147  0.6129  0.5781
  128SOL    HW2  441   0.522   3.718   4.865  0.1021  1.2110 -0.7331
  129SOL     OW  442   2.569   0.967   1.613 -0.0316  0.1506 -0.4365
  129SOL    HW1  443   2.475   0.948   1.617 -0.1559  0.9531  0.8684
  129SOL    HW2  444   2.596   0.974   1.704  0.8151  2.2043 -0.7908
  130SOL     OW  445   0.025   3.508   0.701 -0.2402 -0.4030  0.3079
  130SOL    HW1  446   0.056   3.475   0.617  1.2997  0.1085  0.6408
  130SOL    HW2  447   0.060   3.597   0.707 -1.0075 -0.1362  1.1489
  131SOL     OW  448   1.028   3.796   4.558  0.1339  0.0829 -0.3575
  131SOL    HW1  449   0.947   3.815   4.605 -0.6324 -1.4255 -1.0017
  131SOL    HW2  450   1.030   3.861   4.487 -1.4423 -0.9397 -1.3930
  132SOL     OW  451   2.765   1.760   2.269  0.8698 -0.0096  0.0965
  132SOL    HW1  452   2.714   1.736   2.347  1.4257  1.1930  0.8499
  132SOL    HW2  453   2.701   1.760   2.198  0.1050  0.1055  0.7739
  133SOL     OW  454   4.077   3.480   3.493 -0.3979  0.4391  0.2616
  133SOL    HW1  455   4.083   3.491   3.587  2.5174  0.0952  0.1949
  133SOL    HW2  456   4.043   3.563   3.461 -0.7071  0.8187  1.5333
  134SOL     OW  457   2.851   1.319   3.933 -0.4421  0.0033  0.5263
  134SOL    HW1  458   2.827   1.297   4.023  2.6982  1.3258  1.8347
  134SOL    HW2  459   2.893   1.240   3.899 -0.5447 -0.1009  0.6409
  135SOL     OW  460   3.505   0.557   0.120  0.7719  0.4665 -0.0940
  135SOL    HW1  461   3.488   0.617   0.048  2.5197  0.1428 -0.8280
  135SOL    HW2  462   3.469   0.601   0.197 -0.4558  1.1578 -1.0227
  136SOL     OW  463   1.565   0.121   0.605 -0.3514 -0.6211 -0.5502
  136SOL    HW1  464   1.611   0.100   0.523  0.9317  0.0147 -0.0283
  136SOL    HW2  465   1.510   0.196   0.583  0.7150  0.1647 -0.6261
  137SOL     OW  466   1.146   1.137   3.863  0.5615 -0.2146 -0.0077
  137SOL    HW1  467   1.084   1.127   3.790 -0.4439 -0.2334  0.8138
  137SOL    HW2  468   1.169   1.230   3.863  0.4312 -0.1832 -0.2534
  138SOL     OW  469   4.446   0.435   3.454 -0.2126  0.3011  0.2525
  138SOL    HW1  470   4.438   0.526   3.480 -1.4318  0.5674 -0.9117
  138SOL    HW2  471   4.520   0.401   3.505  0.2815  1.9304  0.6721
  139SOL     OW  472   2.752   3.470   0.194  0.5218 -0.3610 -0.2470
  139SOL    HW1  473   2.704   3.549   0.222  1.6511 -0.1846  1.2843
  139SOL    HW2  474   2.844   3.494   0.203  0.8824 -1.8467  0.1932
  140SOL     OW  475   2.611   4.717   1.418  0.3575 -0.2039  0.0755
  140SOL    HW1  476   2.615   4.771   1.339  0.0692 -2.9967 -1.9948
  140SOL    HW2  477   2.700   4.686   1.431  0.4063  0.2553  0.8809
  141SOL     OW  478   3.183   3.172   2.281  0.0725  0.1436  0.2264
  141SOL    HW1  479   3.264   3.130   2.310  1.1476  1.1433 -1.2025
  141SOL    HW2  480   3.211   3.256   2.246 -1.8888  1.6209  1.9767
  142SOL     OW  481   1.893   2.347   0.982  0.1509  0.4702 -0.4467
  142SOL    HW1  482   1.980   2.381   0.964  0.2088  0.8677  0.5286
  142SOL    HW2  483   1.837   2.425   0.986  0.1740  0.4337  1.1935
  143SOL     OW  484   2.325   3.966   2.319 -0.4258 -0.0829 -0.1104
  143SOL    HW1  485   2.240   4.009   2.325 -0.5316 -0.2994 -0.0280
  143SOL    HW2  486   2.370   3.988   2.401  0.3265  1.5376 -0.9111
  144SOL     OW  487   1.554   4.393   0.439 -0.3257  0.2596 -0.1744
  144SOL    HW1  488   1.512   4.308   0.426  0.7072  0.1396 -4.2566
  144SOL    HW2  489   1.600   4.384   0.523 -1.0137 -2.8590  0.0060
  145SOL     OW  490   4.482   2.317   0.815  0.3269 -0.4587 -0.4158
  145SOL    HW1  491   4.411   2.319   0.880 -0.4461  1.2349 -1.2487
  145SOL    HW2  492   4.482   2.227   0.783 -0.9496 -0.6923  0.1581
  146SOL     OW  493   0.352   2.103   1.733  0.7478  0.3318  0.2837
  146SOL    HW1  494   0.265   2.138   1.753 -0.6783 -2.5737 -0.2736
  146SOL    HW2  495   0.342   2.008   1.742  2.5829 -0.5399 -4.1481
  147SOL     OW  496   2.148   4.878   4.253  0.5189 -0.2158 -0.4661
  147SOL    HW1  497   2.109   4.952   4.298 -0.3229  0.6516 -2.5042
  147SOL    HW2  498   2.201   4.834   4.320 -2.2113 -0.2267  1.8670
  148SOL     OW  499   3.379   0.646   2.097 -0.1945 -0.3115 -0.0174
  148SOL    HW1  500   3.418   0.727   2.064  4.0254 -1.7107  0.9307
  148SOL    HW2  501   3.356   0.665   2.188 -0.5964  0.2143 -0.2274
  149SOL     OW  502   2.145   2.452   0.894 -0.5029 -0.0956  0.1792
  149SOL    HW1  503   2.195   2.379   0.858 -1.2363  0.3306 -1.8231
  149SOL    HW2  504   2.210   2.521   0.908 -0.2679 -0.0766 -0.9159
  150SOL     OW  505   3.954   2.124   2.200 -1.1499  0.2695 -0.3555
  150SOL    HW1  506   3.865   2.114   2.167 -2.3834  3.1924  1.6330
  150SOL    HW2  507   3.960   2.217   2.224  2.5508  0.2494 -0.6199
  151SOL     OW  508   2.075   4.271   2.535 -0.3402  0.6451  0.0398
  151SOL    HW1  509   2.170   4.272   2.545 -0.3054 -1.5277  0.2740
  151SOL    HW2  510   2.041   4.287   2.623 -0.2003  0.5774  0.1051
  152SOL     OW  511   3.292   3.679   4.068 -0.4615  0.1928 -0.4093
  152SOL    HW1  512   3.273   3.772   4.054 -0.6573 -0.0996 -2.4426
  152SOL    HW2  513   3.387   3.673   4.063 -0.5391  0.0480 -2.3069
  153SOL     OW  514   1.782   0.881   0.479 -0.1316 -0.2286 -0.4930
  153SOL    HW1  515   1.811   0.794   0.451  0.2027  0.0476 -1.0142
  153SOL    HW2  516   1.735   0.916   0.403  0.4158  0.3587 -0.5680
  154SOL     OW  517   1.188   3.201   2.053  0.6693  0.4090  0.0204
  154SOL    HW1  518   1.111   3.223   2.105  0.9396  2.1550 -0.2531
  154SOL    HW2  519   1.237   3.140   2.108 -0.6676 -0.3856  0.3771
  155SOL     OW  520   3.118   4.851   4.529 -0.2470  0.2282 -0.5109
  155SOL    HW1  521   3.108   4.879   4.620 -0.1610 -1.3388  0.0185
  155SOL    HW2  522   3.154   4.927   4.484  0.7100  0.7042  0.9839
  156SOL     OW  523   3.173   3.932   3.136 -0.3206  0.1075  0.6256
  156SOL    HW1  524   3.203   4.009   3.183  1.0071 -1.1234  1.8797
  156SOL    HW2  525   3.126   3.880   3.201 -1.3020 -0.1047 -0.2256
  157SOL     OW  526   2.521   0.491   0.476 -0.1248  0.2717 -0.3201
  157SOL    HW1  527   2.443   0.543   0.457 -0.7522 -0.3771  0.4392
  157SOL    HW2  528   2.497   0.401   0.451  0.8118  0.2592 -1.2549
  158SOL     OW  529   4.728   0.985   2.679  0.5105 -0.0704  0.1026
  158SOL    HW1  530   4.644   1.030   2.673  0.5157 -0.0685  0.0492
  158SOL    HW2  531   4.729   0.949   2.768  0.7252  0.4701  0.3239
  159SOL     OW  532   1.415   3.213   0.138 -0.2218  0.4698  0.0277
  159SOL    HW1  533   1.337   3.190   0.088 -0.1124 -0.7833  0.3749
  159SOL    HW2  534   1.433   3.304   0.117 -0.7611  0.2593 -1.4214
  160SOL     OW  535   0.799   0.870   3.850 -0.1839  0.0473  0.2668
  160SOL    HW1  536   0.819   0.846   3.940 -1.5700 -0.0438  0.5661
  160SOL    HW2  537   0.811   0.789   3.800  0.0493 -0.0353  0.4566
  161SOL     OW  538   2.008   4.865   2.961 -0.1075  0.6939 -0.2696
  161SOL    HW1  539   1.938   4.834   2.903 -0.3368  0.2757  0.2244
  161SOL    HW2  540   2.036   4.948   2.922  0.3197  0.0262 -1.4444
  162SOL     OW  541   4.422   2.778   2.742  0.0446  0.3629  0.3695
  162SOL    HW1  542   4.327   2.763   2.742 -0.1571  1.5466  0.5884
  162SOL    HW2  543   4.447   2.764   2.833 -0.2583  1.9072  0.7199
  163SOL     OW  544   2.408   0.935   1.073  0.0780 -0.2529  0.4244
  163SOL    HW1  545   2.404   0.860   1.013  0.2106  0.5764 -0.6511
  163SOL    HW2  546   2.457   1.002   1.024 -0.1112  0.5613  1.3288
  164SOL     OW  547   4.152   2.645   0.308 -0.4147  0.4410 -0.4400
  164SOL    HW1  548   4.112   2.563   0.279  0.6089  0.6632 -2.6642
  164SOL    HW2  549   4.244   2.625   0.319 -0.1668  1.2540 -0.9234
  165SOL     OW  550   2.704   3.490   4.589 -0.1385  0.4911 -0.2566
  165SOL    HW1  551   2.787   3.537   4.586 -0.6173  1.4870  1.1148
  165SOL    HW2  552   2.723   3.408   4.635  0.6477 -0.6394 -2.4470
  166SOL     OW  553   0.162   4.356   1.429 -0.6431 -0.1366  0.0967
  166SOL    HW1  554   0.200   4.435   1.466  1.1368 -0.7814 -0.2480
  166SOL    HW2  555   0.194   4.285   1.484 -2.0643 -0.6662  0.2984
  167SOL     OW  556   3.791   0.140   3.109  0.1094  0.0991 -0.0626
  167SOL    HW1  557   3.708   0.097   3.090 -0.5255  1.1952  0.1634
  167SOL    HW2  558   3.858   0.074   3.089 -0.8024 -0.7402 -0.3830
  168SOL     OW  559   0.450   3.958   1.302  0.3598  0.1181 -0.0700
  168SOL    HW1  560   0.478   3.867   1.310 -0.2793 -0.1644 -0.9601
  168SOL    HW2  561   0.399   3.973   1.382  0.4327 -0.3165  0.0646
  169SOL     OW  562   1.735   0.690   1.489  0.3191  0.1965  0.2218
  169SOL    HW1  563   1.675   0.723   1.422 -0.5977 -0.6451  0.5925
  169SOL    HW2  564   1.694   0.713   1.572  1.6656  1.6139  0.5273
  170SOL     OW  565   1.229   0.101   2.803 -0.2726 -0.3031 -0.3923
  170SOL    HW1  566   1.148   0.060   2.774 -0.1556 -0.7182 -0.1418
  170SOL    HW2  567   1.249   0.166   2.736 -0.0536 -1.1802 -1.1966
  171SOL     OW  568   4.786   1.817   4.452  0.0292 -0.4463  0.2267
  171SOL    HW1  569   4.829   1.821   4.366  0.0214  1.3928  0.2768
  171SOL    HW2  570   4.801   1.903   4.491 -0.9878 -0.8454  1.5892
  172SOL     OW  571   2.810   0.088   4.604  0.1285 -0.7956 -0.4486
  172SOL    HW1  572   2.754   0.104   4.528 -0.6114 -1.4875 -0.0631
  172SOL    HW2  573   2.881   0.152   4.596 -0.9092  0.3397 -0.7529
  173SOL     OW  574   1.388   2.885   1.644  0.4497 -0.8156 -0.3252
  173SOL    HW1  575   1.362   2.800   1.609  1.4773 -1.1482 -0.3393
  173SOL    HW2  576   1.404   2.939   1.566 -0.5461 -0.4836 -0.3142
  174SOL     OW  577   1.209   3.968   3.208  0.0178  0.1979  0.2430
  174SOL    HW1  578   1.303   3.956   3.216  0.4397  0.8911 -2.5608
  174SOL    HW2  579   1.188   4.041   3.267  1.6402  1.4817 -0.6867
  175SOL     OW  580   4.703   1.197   3.277  0.5582  0.2322 -0.1921
  175SOL    HW1  581   4.627   1.225   3.327  0.4244 -0.3962 -0.0328
  175SOL    HW2  582   4.775   1.251   3.309  0.0124  1.4746 -0.9791
  176SOL     OW  583   1.990   0.252   0.116  0.0173 -0.2250  0.0289
  176SOL    HW1  584   2.077   0.273   0.151  0.4753  1.2737 -1.7981
  176SOL    HW2  585   2.001   0.262   0.021 -2.0035 -0.6346 -0.2747
  177SOL     OW  586   4.072   0.972   2.857 -0.5878  0.3748  0.0001
  177SOL    HW1  587   3.999   0.957   2.917 -1.9115 -0.7158 -1.7768
  177SOL    HW2  588   4.030   0.988   2.772  1.1354  3.5134 -0.4202
  178SOL     OW  589   2.880   3.609   3.568 -0.4551  0.3438  0.0946
  178SOL    HW1  590   2.829   3.529   3.580 -0.6517  0.5069  0.3502
  178SOL    HW2  591   2.955   3.581   3.515  0.9562 -0.6129  2.4517
  179SOL     OW  592   2.080   2.032   1.190 -0.2096 -0.1105  0.1741
  179SOL    HW1  593   2.173   2.017   1.204  0.3496  0.5871 -2.2533
  179SOL    HW2  594   2.060   2.109   1.244  0.1138 -1.3528  2.1646
  180SOL     OW  595   0.492   3.279   2.644  0.2937 -0.2373  0.1604
  180SOL    HW1  596   0.465   3.293   2.553  0.6523 -1.8727 -0.2343
  180SOL    HW2  597   0.523   3.365   2.673 -0.7508  0.5451 -0.9280
  181SOL     OW  598   3.390   1.176   1.505  0.1222 -0.2404 -0.4393
  181SOL    HW1  599   3.484   1.164   1.517  0.3054  1.1519 -0.2448
  181SOL    HW2  600   3.383   1.242   1.436 -0.5989  1.6069  1.2976
  182SOL     OW  601   2.470   1.415   3.004  0.5741 -0.1071 -0.0616
  182SOL    HW1  602   2.487   1.496   2.957 -0.3110  0.2933  0.2966
  182SOL    HW2  603   2.452   1.442   3.094 -2.4960 -0.3932 -0.4903
  183SOL     OW  604   4.166   1.530   0.803  0.5303  0.1467  0.2021
  183SOL    HW1  605   4.147   1.605   0.747  0.7242  0.4540  0.5375
  183SOL    HW2  606   4.245   1.491   0.766  1.2099  0.9137  0.8035
  184SOL     OW  607   1.122   1.848   3.707  0.2239 -0.4896  0.2007
  184SOL    HW1  608   1.158   1.872   3.792  1.1840 -1.1798  0.0035
  184SOL    HW2  609   1.133   1.927   3.654  0.3487 -0.3079  0.4933
  185SOL     OW  610   2.924   0.991   4.054 -0.4826  0.7043  0.1347
  185SOL    HW1  611   2.991   0.979   4.122 -0.7574  0.9038  0.4419
  185SOL    HW2  612   2.974   1.020   3.977 -0.2432  1.1164  0.4385
  186SOL     OW  613   2.677   0.207   2.768  0.1971 -0.3325 -0.1506
  186SOL    HW1  614   2.606   0.167   2.716 -0.5349 -0.0000  0.5670
  186SOL    HW2  615   2.631   0.266   2.828  1.0980 -0.1251  0.3377
  187SOL     OW  616   3.676   1.321   0.806  0.0837 -0.2788 -0.1512
  187SOL    HW1  617   3.763   1.347   0.836 -0.2938  0.6380  0.2035
  187SOL    HW2  618   3.648   1.393   0.749 -0.0425 -1.0391 -1.0778
  188SOL     OW  619   1.481   0.368   0.538  0.1912 -0.1800 -0.0883
  188SOL    HW1  620   1.493   0.449   0.587 -0.9108  1.0787 -1.7888
  188SOL    HW2  621   1.546   0.373   0.467 -0.4609 -0.3600 -0.7071
  189SOL     OW  622   0.366   2.117   0.184  0.0974  0.2260 -0.1065
  189SOL    HW1  623   0.303   2.070   0.130  0.1239  1.0688 -0.8912
  189SOL    HW2  624   0.441   2.058   0.192  0.4901  0.4556 -1.7959
  190SOL     OW  625   1.477   3.057   4.219  0.3005  0.4768 -0.1736
  190SOL    HW1  626   1.482   3.141   4.264  0.2201  0.5678 -0.3381
  190SOL    HW2  627   1.424   3.073   4.142 -0.1611  0.1542  0.0715
  191SOL     OW  628   4.120   3.081   2.796  0.2220 -0.4946  0.0259
  191SOL    HW1  629   4.051   3.146   2.808 -0.8387 -1.4452 -0.6657
  191SOL    HW2  630   4.140   3.085   2.702  0.5258 -0.8133  0.0745
  192SOL     OW  631   3.500   1.195   3.897  0.1212  0.1299 -0.0979
  192SOL    HW1  632   3.511   1.191   3.802  0.1695  0.0934 -0.0905
  192SOL    HW2  633   3.416   1.239   3.909  0.4734  0.8272 -0.1413
  193SOL     OW  634   4.793   3.304   4.265  0.0973 -0.1877  0.1895
  193SOL    HW1  635   4.791   3.277   4.173  0.7878 -0.4594  0.2517
  193SOL    HW2  636   4.723   3.253   4.306 -0.2265 -0.0508 -0.1882
  194SOL     OW  637   0.272   0.880   0.549  0.0429  0.2452  0.1967
  194SOL    HW1  638   0.188   0.833   0.550 -0.8780  1.6107 -2.6831
  194SOL    HW2  639   0.338   0.811   0.553 -1.2447 -1.1793 -1.4051
  195SOL     OW  640   2.016   1.621   0.020 -0.2653 -0.5413 -0.1613
  195SOL    HW1  641   2.036   1.530   0.042 -0.8880 -0.6636 -0.0718
  195SOL    HW2  642   1.985   1.659   0.103 -0.4697 -0.3841 -0.3083
  196SOL     OW  643   1.272   4.128   1.919  0.3014 -0.4849  0.0151
  196SOL    HW1  644   1.248   4.074   1.994  0.8324  0.0269  0.5612
  196SOL    HW2  645   1.368   4.124   1.916  0.4089  1.0959  0.5853
  197SOL     OW  646   2.303   1.788   2.203 -0.2962 -0.2412  0.3920
  197SOL    HW1  647   2.333   1.723   2.267 -0.6896  1.3147  2.2256
  197SOL    HW2  648   2.208   1.791   2.214 -0.2477  0.8930  0.5987
  198SOL     OW  649   0.491   2.206   4.894 -0.3123 -0.1442  0.2590
  198SOL    HW1  650   0.583   2.215   4.916 -0.1599 -1.6578  0.3303
  198SOL    HW2  651   0.462   2.128   4.941 -1.5201  0.0541 -0.1121
  199SOL     OW  652   1.835   3.236   2.971 -0.0020  0.4040 -0.2456
  199SOL    HW1  653   1.748   3.252   3.008  0.6328 -0.9435  2.0606
  199SOL    HW2  654   1.891   3.303   3.012  0.6459 -0.8968  1.1079
  200SOL     OW  655   2.941   0.449   0.127 -0.2060  0.1261 -0.2250
  200SOL    HW1  656   2.888   0.484   0.199 -0.5814  1.0450 -0.9333
  200SOL    HW2  657   2.901   0.484   0.048  0.1014 -1.0023 -0.9148
  201SOL     OW  658   2.896   0.272   2.635  0.1938  0.0363  0.0432
  201SOL    HW1  659   2.941   0.188   2.631 -0.8634 -0.5748  0.5627
  201SOL    HW2  660   2.813   0.253   2.680 -0.1519  1.3108 -0.0147
  202SOL     OW  661   0.460   0.673   2.483 -0.3063 -0.0833 -0.4793
  202SOL    HW1  662   0.500   0.639   2.562  0.3805  2.1376  0.2037
  202SOL    HW2  663   0.533   0.684   2.422 -0.3228  1.0735 -0.3164
  203SOL     OW  664   1.713   1.606   2.740  0.1252 -0.5425  0.3475
  203SOL    HW1  665   1.705   1.697   2.767  1.1036 -0.9493  2.1499
  203SOL    HW2  666   1.679   1.605   2.650 -0.0803  1.5385  0.3474
  204SOL     OW  667   0.047   2.635   3.331 -0.4630 -0.4216 -0.1008
  204SOL    HW1  668   0.072   2.659   3.241 -0.9225 -1.6377 -0.5702
  204SOL    HW2  669  -0.007   2.557   3.321 -1.5818  0.1593  1.1570
  205SOL     OW  670   1.806   3.737   2.734  0.7352 -0.4193  0.2506
  205SOL    HW1  671   1.779   3.645   2.729  3.1993 -1.1967  0.0289
  205SOL    HW2  672   1.831   3.749   2.825  3.1711 -0.8653 -0.3110
  206SOL     OW  673   4.459   0.138   4.991 -0.1965  0.4811  0.0049
  206SOL    HW1  674   4.503   0.221   5.009 -1.2968  0.8195  1.2818
  206SOL    HW2  675   4.393   0.160   4.926  0.4752  0.2844 -0.7616
  207SOL     OW  676   3.343   0.952   1.880  0.6598 -0.6150 -0.4888
  207SOL    HW1  677   3.285   0.960   1.805  0.4227 -0.5008 -0.2939
  207SOL    HW2  678   3.341   1.038   1.922 -0.6487 -1.1792  0.6944
  208SOL     OW  679   3.062   4.631   2.067  0.1463 -0.2625  0.1896
  208SOL    HW1  680   3.065   4.582   1.985  0.4650  1.2425 -0.7578
  208SOL    HW2  681   2.980   4.605   2.108  0.5945 -2.0117  0.0445
  209SOL     OW  682   4.897   4.034   3.474 -0.1517 -0.0835  0.3596
  209SOL    HW1  683   4.977   4.080   3.449 -0.5767  0.9393  0.8228
  209SOL    HW2  684   4.924   3.973   3.543  0.2094  0.3004  0.5580
  210SOL     OW  685   4.743   0.105  -0.011  0.2268 -0.0660  0.2544
  210SOL    HW1  686   4.759   0.048   0.064 -0.0176  0.4231  0.6827
  210SOL    HW2  687   4.650   0.090  -0.032 -0.0534  0.7554  0.8676
  211SOL     OW  688   1.409   3.613   3.309 -0.2311  0.2437 -0.2067
  211SOL    HW1  689   1.463   3.536   3.325 -2.7888 -1.5288  0.5389
  211SOL    HW2  690   1.348   3.586   3.241 -0.2627  2.1564 -1.0123
  212SOL     OW  691   4.871   4.493   3.234  0.0188 -0.2658  0.1861
  212SOL    HW1  692   4.940   4.530   3.178 -0.5390 -0.3717 -0.5826
  212SOL    HW2  693   4.799   4.555   3.226 -0.1052 -0.3478  0.6958
  213SOL     OW  694   4.944   3.897   4.717 -0.1050 -0.2355 -0.1769
  213SOL    HW1  695   4.900   3.896   4.802 -0.1768 -1.1169 -0.2139
  213SOL    HW2  696   5.012   3.830   4.724  1.3894  1.2467 -0.0602
  214SOL     OW  697   2.737   0.870   1.052  0.0245  0.3274  0.2057
  214SOL    HW1  698   2.673   0.803   1.076 -0.6661  0.7305 -0.4671
  214SOL    HW2  699   2.687   0.936   1.005  1.1063  0.1494 -1.2762
  215SOL     OW  700   0.891   1.068   2.641  0.0947 -0.1695 -0.0305
  215SOL    HW1  701   0.829   1.004   2.675 -0.7085  0.7028  0.1713
  215SOL    HW2  702   0.925   1.113   2.718  2.6883 -2.0895  0.0887
  216SOL     OW  703   2.374   1.916   3.672  0.3761  0.5460  0.3529
  216SOL    HW1  704   2.418   2.001   3.680  0.2927  0.5141  1.2824
  216SOL    HW2  705   2.436   1.862   3.622  0.7061  0.9650  0.3001
  217SOL     OW  706   0.356   2.945   3.922  0.6812  0.2668  0.4268
  217SOL    HW1  707   0.272   2.905   3.946  1.3830 -0.2307  2.2305
  217SOL    HW2  708   0.348   3.036   3.951  0.5230  0.4102 -0.0538
  218SOL     OW  709   0.538   2.548   0.558 -0.0103  0.5537  0.3241
  218SOL    HW1  710   0.466   2.512   0.610 -2.2285  2.5279 -1.1762
  218SOL    HW2  711   0.495   2.603   0.492  2.8290  0.7208 -1.5647
  219SOL     OW  712   0.620   0.808   4.853 -0.2482 -0.0738 -1.0065
  219SOL    HW1  713   0.580   0.794   4.767  0.1499 -0.3250 -1.1539
  219SOL    HW2  714   0.686   0.740   4.860 -1.0126 -0.7343 -0.0401
  220SOL     OW  715   4.325   4.078   0.258 -0.8272  0.1107  0.2185
  220SOL    HW1  716   4.263   4.068   0.331 -0.0769  0.8787  0.9783
  220SOL    HW2  717   4.403   4.117   0.297  0.3011 -1.1583 -0.6523
  221SOL     OW  718   4.804   3.209   4.928 -0.1816 -0.5102 -0.3969
  221SOL    HW1  719   4.784   3.146   4.859 -0.6158  0.9355 -1.6453
  221SOL    HW2  720   4.894   3.187   4.954  1.1747  0.7093 -3.5395
  222SOL     OW  721   2.253   4.182   4.190 -0.1262 -0.5019  0.3797
  222SOL    HW1  722   2.348   4.191   4.201 -0.1434 -0.4739  0.5038
  222SOL    HW2  723   2.235   4.091   4.215 -0.4747  0.1556  2.7493
  223SOL     OW  724   3.738   4.840   2.791  0.3096 -0.4419  0.1980
  223SOL    HW1  725   3.750   4.904   2.721 -1.8293  1.3258  1.2929
  223SOL    HW2  726   3.673   4.779   2.758 -1.3223  0.8705  0.8375
  224SOL     OW  727   3.123   1.541   4.338 -0.3017  0.1691 -0.1313
  224SOL    HW1  728   3.078   1.465   4.375  1.8856 -1.4515 -0.5854
  224SOL    HW2  729   3.067   1.616   4.361 -1.9699 -1.4238  1.3197
  225SOL     OW  730   4.531   1.900   0.320 -0.2278 -0.0631 -0.0110
  225SOL    HW1  731   4.462   1.843   0.287 -0.8379 -0.1373  1.3141
  225SOL    HW2  732   4.570   1.850   0.393  0.6487  0.3380 -0.1939
  226SOL     OW  733   3.337   1.720   4.027  0.0032  0.3500 -0.0950
  226SOL    HW1  734   3.351   1.808   3.994 -0.9924  0.8346  0.7131
  226SOL    HW2  735   3.424   1.686   4.046  0.4270  0.9378 -0.9512
  227SOL     OW  736   4.124   3.257   3.336  0.4498  0.3423 -0.9275
  227SOL    HW1  737   4.065   3.186   3.363  0.2391  0.3454 -1.3692
  227SOL    HW2  738   4.117   3.321   3.406  0.7307 -0.1252 -0.4689
  228SOL     OW  739   1.381   0.793   1.891 -0.2903  0.0111  0.3497
  228SOL    HW1  740   1.435   0.714   1.890 -0.6147 -0.2266  0.9859
  228SOL    HW2  741   1.329   0.788   1.811  1.7529  1.0525 -1.1233
  229SOL     OW  742   3.656   4.372   1.580 -0.1071  0.1891 -0.7077
  229SOL    HW1  743   3.716   4.417   1.640 -1.8740  0.3123  1.0864
  229SOL    HW2  744   3.628   4.295   1.629 -0.8192 -0.2630 -1.8167
  230SOL     OW  745   0.864   2.161   2.726 -0.2207 -0.1180  0.1676
  230SOL    HW1  746   0.816   2.155   2.808  0.2050  0.2501  0.4545
  230SOL    HW2  747   0.798   2.182   2.660 -0.4055  0.7685  0.6148
  231SOL     OW  748   1.187   0.139   3.517  0.2224 -0.7022  0.2944
  231SOL    HW1  749   1.257   0.136   3.452  1.0283 -0.7108  1.1443
  231SOL    HW2  750   1.118   0.084   3.480  1.6088 -2.6870  0.5080
  232SOL     OW  751   0.104   2.329   3.405  0.3572  0.3060  0.0424
  232SOL    HW1  752   0.192   2.314   3.371  0.3752  0.5105 -0.0028
  232SOL    HW2  753   0.118   2.386   3.481  0.3140 -0.1023  0.3581
  233SOL     OW  754   3.795   2.484   0.844  0.6998  0.1817  0.7370
  233SOL    HW1  755   3.722   2.527   0.889  1.9316  2.3152  0.8249
  233SOL    HW2  756   3.756   2.450   0.763 -1.0535 -1.7271  2.2547
  234SOL     OW  757   1.879   2.311   0.080 -0.5152 -0.2224  0.1388
  234SOL    HW1  758   1.902   2.370   0.151 -0.3825 -0.2329  0.1060
  234SOL    HW2  759   1.851   2.368   0.009 -2.1681 -0.2627  0.7151
  235SOL     OW  760   2.263   2.028   4.555  0.2066  0.0056  0.3876
  235SOL    HW1  761   2.241   1.947   4.509  0.5821  0.1221 -0.0024
  235SOL    HW2  762   2.340   2.061   4.510  0.6905  0.0314  1.2214
  236SOL     OW  763   0.263   3.050   4.838  0.4434 -0.3807 -0.0655
  236SOL    HW1  764   0.305   3.069   4.921 -1.4571  1.8752  0.5049
  236SOL    HW2  765   0.201   2.979   4.858 -0.2611  0.3899  0.5923
  237SOL     OW  766   3.909   0.789   1.069 -0.0690 -0.3340  0.2502
  237SOL    HW1  767   3.995   0.827   1.049  0.4822 -1.1812  0.9205
  237SOL    HW2  768   3.900   0.800   1.163  0.3725 -2.3307  0.5726
  238SOL     OW  769   1.483   1.151   4.500 -0.3735  0.1847  0.1286
  238SOL    HW1  770   1.519   1.209   4.567 -0.3015 -1.0766  1.2346
  238SOL    HW2  771   1.391   1.141   4.524 -0.1056 -1.1497  0.7658
  239SOL     OW  772   1.596   0.229   3.549  0.3957 -0.3035  0.0230
  239SOL    HW1  773   1.611   0.257   3.639  0.7299 -0.1221 -0.0866
  239SOL    HW2  774   1.521   0.281   3.520 -1.6004 -2.4090  1.1162
  240SOL     OW  775   2.380   2.393   4.928 -0.2343 -0.3574 -0.3685
  240SOL    HW1  776   2.462   2.410   4.974  0.1331 -1.2311 -0.6741
  240SOL    HW2  777   2.311   2.416   4.991  0.2464 -0.1464  0.0825
  241SOL     OW  778   3.484   1.546   1.738 -0.8535 -0.4536  0.0319
  241SOL    HW1  779   3.392   1.558   1.763 -0.9255 -1.5378  0.3371
  241SOL    HW2  780   3.517   1.635   1.726 -2.7632  0.0019 -3.1096
  242SOL     OW  781   0.319   1.901   3.361  0.2134 -0.4123 -0.6922
  242SOL    HW1  782   0.269   1.904   3.443 -0.4813 -2.3634 -1.0004
  242SOL    HW2  783   0.305   1.987   3.322 -1.6008 -0.3407  0.0106
  243SOL     OW  784   4.452   3.382   1.032  0.5964  0.2972 -0.2809
  243SOL    HW1  785   4.445   3.312   1.097  0.8478  0.4626 -0.0743
  243SOL    HW2  786   4.422   3.343   0.950 -0.3520  0.2673  0.0692
  244SOL     OW  787   4.373   4.960   1.409 -0.3517  0.1151  0.2359
  244SOL    HW1  788   4.280   4.969   1.425 -0.5923  0.5559 -1.2415
  244SOL    HW2  789   4.393   4.869   1.432 -1.6533 -0.7058 -1.5760
  245SOL     OW  790   0.677   3.681   2.370  0.0995 -0.0867 -0.6034
  245SOL    HW1  791   0.733   3.743   2.323  1.8027 -1.0110  0.1091
  245SOL    HW2  792   0.653   3.727   2.450  0.3250  0.1107 -0.6466
  246SOL     OW  793   4.726   3.610   3.714  0.0802 -0.3124  0.8742
  246SOL    HW1  794   4.665   3.676   3.681  0.7304  0.4482  1.1775
  246SOL    HW2  795   4.750   3.641   3.801 -0.7170 -1.7067  1.6353
  247SOL     OW  796   4.873   0.721   1.553  0.1819 -0.2385 -0.6412
  247SOL    HW1  797   4.841   0.786   1.489  2.8527  1.4601 -0.4330
  247SOL    HW2  798   4.945   0.677   1.508 -0.0553 -1.3855  0.0760
  248SOL     OW  799   3.892   2.367   4.375  0.6398 -0.2923 -0.6219
  248SOL    HW1  800   3.935   2.452   4.380  0.7343 -0.4226  1.6805
  248SOL    HW2  801   3.854   2.364   4.287  1.5887  1.6401 -1.1392
  249SOL     OW  802   2.922   0.052   0.627  0.3956  0.1695 -0.0444
  249SOL    HW1  803   2.959   0.128   0.672  0.1099  0.3519 -0.1222
  249SOL    HW2  804   2.974   0.045   0.546 -0.9542  1.5604 -1.0775
  250SOL     OW  805   4.452   2.831   0.190 -0.0722 -0.3740  0.3168
  250SOL    HW1  806   4.428   2.760   0.250 -1.2263 -0.8232 -0.6138
  250SOL    HW2  807   4.510   2.888   0.240 -0.0617 -1.3634  1.4579
  251SOL     OW  808   0.072   3.720   2.553 -0.0934 -0.4719  0.5721
  251SOL    HW1  809   0.020   3.680   2.483  0.2286  1.2594 -0.7355
  251SOL    HW2  810   0.011   3.733   2.625 -0.6405 -1.5313  0.3084
  252SOL     OW  811   3.224   4.578   4.496  0.0917 -0.0045  0.4663
  252SOL    HW1  812   3.172   4.658   4.494  1.9400  1.2644  0.7484
  252SOL    HW2  813   3.295   4.597   4.558  2.1738 -0.8201 -1.5368
  253SOL     OW  814   0.253   2.199   0.450 -0.9582  0.1206  0.3583
  253SOL    HW1  815   0.234   2.118   0.497  1.2605 -1.4483 -1.2906
  253SOL    HW2  816   0.273   2.172   0.361 -0.2445  2.5012 -0.2899
  254SOL     OW  817   2.000   3.749   1.389 -0.3077  0.3507  0.0686
  254SOL    HW1  818   2.014   3.839   1.360  2.1770  0.2637  0.7663
  254SOL    HW2  819   2.086   3.706   1.378 -1.0328 -1.5158  1.1419
  255SOL     OW  820   4.379   2.642   3.945 -0.2169  0.1397 -0.2308
  255SOL    HW1  821   4.409   2.633   3.854  0.4239  0.0377 -0.0180
  255SOL    HW2  822   4.285   2.623   3.941  0.1738 -2.0305 -0.5598
  256SOL     OW  823   3.797   3.624   4.128 -0.3476 -0.1681  0.1440
  256SOL    HW1  824   3.869   3.598   4.069 -0.5860  0.1247 -0.2794
  256SOL    HW2  825   3.836   3.619   4.216 -0.1400 -1.1274  0.0130
  257SOL     OW  826   4.925   2.260   1.994 -0.9029  0.0364 -0.2869
  257SOL    HW1  827   4.956   2.343   1.959  0.4496 -0.1226  0.5111
  257SOL    HW2  828   4.888   2.215   1.918 -0.6367  0.8924 -0.9359
  258SOL     OW  829   0.590   3.104   4.733  0.3859 -0.5475 -0.0852
  258SOL    HW1  830   0.635   3.096   4.649  0.9366 -2.2100  0.3146
  258SOL    HW2  831   0.524   3.035   4.732 -0.7831  0.5479  0.1650
  259SOL     OW  832   4.244   2.947   1.641  0.1580  0.1791 -0.3935
  259SOL    HW1  833   4.209   2.905   1.720 -2.0567  1.5609 -0.5556
  259SOL    HW2  834   4.305   3.013   1.674 -0.6031  0.6129  0.1688
  260SOL     OW  835   0.636   1.705   4.746  0.4686  0.1015 -0.5583
  260SOL    HW1  836   0.721   1.706   4.704  0.9310 -1.1453  0.2844
  260SOL    HW2  837   0.655   1.720   4.839 -0.2414 -0.0277 -0.3836
  261SOL     OW  838   2.401   3.450   4.095  0.4640  0.8658  0.4235
  261SOL    HW1  839   2.313   3.443   4.057  0.7407  0.8816 -0.2212
  261SOL    HW2  840   2.436   3.532   4.059  1.0482  0.4530  0.0538
  262SOL     OW  841   3.582  -0.006   1.743  0.6426  0.3273 -0.0895
  262SOL    HW1  842   3.657   0.003   1.685  1.1193  1.8565  0.7003
  262SOL    HW2  843   3.597   0.060   1.812 -0.7798 -0.2083  0.7784
  263SOL     OW  844   3.714   0.423   1.734 -0.1218  0.4579 -0.3017
  263SOL    HW1  845   3.714   0.512   1.699 -0.9998  0.7185  0.3243
  263SOL    HW2  846   3.650   0.425   1.805  0.1992 -0.5532  0.0367
  264SOL     OW  847   2.953   0.433   2.979  0.0892  0.2532  0.2702
  264SOL    HW1  848   2.987   0.518   3.009  0.7375  0.4474 -0.9561
  264SOL    HW2  849   2.930   0.447   2.888  0.6041 -0.9982 -0.0771
  265SOL     OW  850   2.670   0.072   4.348  0.2881  0.0268  0.4884
  265SOL    HW1  851   2.719   0.150   4.323  1.6944 -0.6647  0.9666
  265SOL    HW2  852   2.592   0.073   4.292  1.8476  0.1080 -1.8370
  266SOL     OW  853   0.509   2.397   1.343  0.1780 -0.6226 -0.2771
  266SOL    HW1  854   0.471   2.446   1.270 -1.1752  2.7972  2.4968
  266SOL    HW2  855   0.603   2.411   1.334 -0.0831  1.3398 -0.3871
  267SOL     OW  856   3.429   0.071   2.716  0.4646 -0.2141 -0.4856
  267SOL    HW1  857   3.392   0.121   2.644 -0.1320 -0.5165 -0.3934
  267SOL    HW2  858   3.359   0.013   2.744  1.4519 -1.8447 -1.2649
  268SOL     OW  859   2.049   1.528   3.728 -0.1730 -0.2042 -0.0628
  268SOL    HW1  860   2.013   1.587   3.795 -0.9764 -1.0806  0.2950
  268SOL    HW2  861   2.047   1.442   3.769 -3.2502 -1.2711 -2.1110
  269SOL     OW  862   3.547   0.770   1.853 -0.2479 -0.4837 -0.1779
  269SOL    HW1  863   3.503   0.702   1.803  0.3667 -0.9096 -0.1502
  269SOL    HW2  864   3.481   0.839   1.864 -1.1752 -1.4520  0.5858
  270SOL     OW  865   2.019   2.421   4.791 -0.3263 -0.1401 -0.2347
  270SOL    HW1  866   2.010   2.349   4.728 -0.9856 -0.4918  0.2455
  270SOL    HW2  867   2.056   2.379   4.869 -0.7182  0.0363  0.0468
  271SOL     OW  868   4.594   4.153   3.264 -0.4593  0.2989 -0.2065
  271SOL    HW1  869   4.595   4.200   3.347  0.3799 -1.9850  1.1489
  271SOL    HW2  870   4.623   4.065   3.285 -2.4822 -1.0514 -2.5334
  272SOL     OW  871   3.017   3.434   4.276  0.2853  0.8188 -0.0038
  272SOL    HW1  872   3.066   3.416   4.356 -1.7567 -0.6586  0.9883
  272SOL    HW2  873   2.980   3.521   4.289  1.5470  1.4050 -0.2156
  273SOL     OW  874   2.787   3.940   0.854  0.3236  0.1875  0.5852
  273SOL    HW1  875   2.840   3.980   0.786  1.5058 -0.5929  1.0197
  273SOL    HW2  876   2.718   3.893   0.806 -0.4795  1.8466  0.0460
  274SOL     OW  877   2.460   3.844   0.097 -0.0139  0.0710  0.3662
  274SOL    HW1  878   2.473   3.939   0.101  0.0086  0.1196 -0.5290
  274SOL    HW2  879   2.391   3.833   0.031  3.0153 -0.7169 -2.9762
  275SOL     OW  880   2.311   2.332   4.647 -0.5510 -0.5486  0.3767
  275SOL    HW1  881   2.332   2.346   4.739  0.2142 -0.1360  0.1573
  275SOL    HW2  882   2.268   2.247   4.644 -0.7967 -0.4580  1.1414
  276SOL     OW  883   0.245   1.904   0.039 -0.2372  0.0869 -0.3443
  276SOL    HW1  884   0.154   1.876   0.032 -0.9468  2.2424 -0.3301
  276SOL    HW2  885   0.277   1.901  -0.051 -1.3371  2.3140 -0.8925
  277SOL     OW  886   1.109  -0.002   2.416  0.1672 -0.3767  0.5461
  277SOL    HW1  887   1.181  -0.033   2.471  0.6028  0.2455  0.3442
  277SOL    HW2  888   1.151   0.056   2.352 -0.1924 -1.7122 -0.9814
  278SOL     OW  889   2.324   2.683   1.385 -0.2495  0.0839  0.3168
  278SOL    HW1  890   2.273   2.723   1.456 -0.6856 -0.9989  0.6374
  278SOL    HW2  891   2.262   2.678   1.312  0.0916  0.8649 -0.0326
  279SOL     OW  892   1.523   4.532   2.594  0.1699 -0.3267  0.2904
  279SOL    HW1  893   1.603   4.580   2.572  0.4519 -1.0092 -0.2150
  279SOL    HW2  894   1.543   4.441   2.572 -0.2352 -0.7413  1.5464
  280SOL     OW  895   0.282   1.280   4.197 -0.1941  0.8564 -0.3015
  280SOL    HW1  896   0.341   1.347   4.163 -0.2149  0.2824 -1.5182
  280SOL    HW2  897   0.200   1.292   4.149  0.2580 -0.9378 -1.6461
  281SOL     OW  898   4.119   3.117   1.419 -0.3371 -0.1138 -0.2790
  281SOL    HW1  899   4.077   3.195   1.457 -0.5081  0.3486 -1.3711
  281SOL    HW2  900   4.167   3.077   1.492 -3.9026 -1.5750  1.5278
  282SOL     OW  901   1.661   0.936   4.635  0.3169 -0.2323 -0.2649
  282SOL    HW1  902   1.596   1.001   4.608  1.7380  1.3690 -0.0645
  282SOL    HW2  903   1.735   0.950   4.575  1.3923 -0.3469  0.9782
  283SOL     OW  904   1.600   0.666   0.443 -0.6489  0.3681 -0.4720
  283SOL    HW1  905   1.599   0.761   0.446 -3.2259  0.4308 -0.7867
  283SOL    HW2  906   1.610   0.639   0.535 -0.7707  0.9553 -0.2826
  284SOL     OW  907   2.744   3.236   0.071 -0.2209 -0.0084  0.1310
  284SOL    HW1  908   2.740   3.315   0.126  0.3118 -0.1093  0.3225
  284SOL    HW2  909   2.732   3.269  -0.018 -0.0048  0.2911  0.2099
  285SOL     OW  910  -0.010   1.676   0.214 -0.3315  0.2464  0.5263
  285SOL    HW1  911   0.073   1.659   0.168 -0.4274 -1.4343  0.9230
  285SOL    HW2  912  -0.050   1.748   0.164  0.8260  0.3141 -0.3572
  286SOL     OW  913   2.101   4.609   1.895  0.2808  0.0155  0.0074
  286SOL    HW1  914   2.017   4.607   1.942  0.2428  0.7841 -0.0246
  286SOL    HW2  915   2.081   4.572   1.809  0.2012 -0.7586  0.3497
  287SOL     OW  916   3.361   0.374   3.022 -0.1544 -0.2790 -0.4758
  287SOL    HW1  917   3.283   0.321   3.037 -0.4208  0.6005  1.5195
  287SOL    HW2  918   3.334   0.463   3.042  0.4469  0.6066 -3.2263
  288SOL     OW  919   4.143   3.689   4.735 -0.1595  0.0610  0.2174
  288SOL    HW1  920   4.151   3.665   4.828 -0.6190 -0.8585  0.0296
  288SOL    HW2  921   4.214   3.752   4.721 -1.2471  1.7019  1.6614
  289SOL     OW  922   1.154   0.053   1.441  0.0750  0.3672  0.6308
  289SOL    HW1  923   1.103  -0.011   1.490 -0.2786  0.5498  0.5026
  289SOL    HW2  924   1.091   0.120   1.415  0.0397 -0.2333 -0.9527
  290SOL     OW  925   0.166   2.649   2.564 -0.1566 -0.3942 -0.4707
  290SOL    HW1  926   0.135   2.567   2.604  0.9535 -0.2853  0.6926
  290SOL    HW2  927   0.260   2.648   2.578 -0.4214  3.0226  3.5785
  291SOL     OW  928   1.709   2.190   4.507 -0.6328  0.0047 -0.0492
  291SOL    HW1  929   1.625   2.177   4.463 -0.0226  0.1043 -1.2993
  291SOL    HW2  930   1.719   2.285   4.511 -0.7305 -0.0040  0.3976
  292SOL     OW  931   3.245   3.934   3.505  0.0316 -0.1553 -0.1667
  292SOL    HW1  932   3.192   3.959   3.429  0.5125 -1.1029 -0.8340
  292SOL    HW2  933   3.192   3.868   3.551 -0.0745  0.1084  0.0964
  293SOL     OW  934   0.312   2.642   3.406  0.2121 -0.1255  0.3339
  293SOL    HW1  935   0.342   2.715   3.352  0.2217 -0.4994 -0.1665
  293SOL    HW2  936   0.219   2.633   3.383 -0.3452  1.0804  1.9281
  294SOL     OW  937   2.235   3.406   1.093 -0.1807 -0.3272 -0.4878
  294SOL    HW1  938   2.325   3.376   1.076 -0.4042 -0.2926 -1.8594
  294SOL    HW2  939   2.197   3.337   1.148  0.9157  0.0473  0.8052
  295SOL     OW  940   3.909   4.083   2.487 -0.2409 -0.1640 -0.6346
  295SOL    HW1  941   3.940   4.147   2.551  0.8949 -1.6760  0.4130
  295SOL    HW2  942   3.910   4.130   2.404 -0.7115  1.5409  0.2687
  296SOL     OW  943   3.538   2.241   4.369 -0.5508 -0.4123 -0.6907
  296SOL    HW1  944   3.613   2.211   4.319  0.9597 -1.1510  1.8536
  296SOL    HW2  945   3.489   2.161   4.389 -0.8288 -0.2022 -0.5239
  297SOL     OW  946   4.734   4.415   1.568 -0.2561  0.0783  0.0609
  297SOL    HW1  947   4.696   4.344   1.518 -1.8218  0.8904  0.0261
  297SOL    HW2  948   4.696   4.494   1.530 -0.0996  0.8073  1.3450
  298SOL     OW  949   2.003   1.547   4.539  0.7516 -0.2475 -0.0963
  298SOL    HW1  950   2.017   1.520   4.630  1.0306  0.2462  0.0105
  298SOL    HW2  951   2.077   1.510   4.491  0.3415 -0.9298 -0.2145
  299SOL     OW  952   0.158   3.687   0.108  0.2808 -0.3508  0.7916
  299SOL    HW1  953   0.126   3.722   0.025  0.4798 -0.5495  0.6310
  299SOL    HW2  954   0.138   3.756   0.172 -0.7420 -0.5870  0.7514
  300SOL     OW  955   4.046   2.695   3.680  0.1545  0.0527  0.2713
  300SOL    HW1  956   3.958   2.723   3.653 -0.3123 -0.0578  1.5820
  300SOL    HW2  957   4.084   2.655   3.602 -1.4736 -1.1378  0.0318
  301SOL     OW  958   3.348   1.660   2.811  0.1981 -0.1636  0.3196
  301SOL    HW1  959   3.299   1.582   2.786 -0.1712 -0.2602  1.3209
  301SOL    HW2  960   3.436   1.628   2.832  0.7287  0.0026 -1.4173
  302SOL     OW  961   3.544   0.833   3.615  0.1197  0.1804  0.0858
  302SOL    HW1  962   3.591   0.796   3.690  1.2454  1.2565 -0.0572
  302SOL    HW2  963   3.542   0.763   3.551  1.5793  0.1121  0.0866
  303SOL     OW  964   0.165   1.034   0.797 -0.2906  0.0704 -0.4597
  303SOL    HW1  965   0.198   1.005   0.712  2.0477  0.9660  0.0606
  303SOL    HW2  966   0.152   0.953   0.846 -1.3487 -0.4386 -1.5382
  304SOL     OW  967   1.218   4.717   1.450 -0.1013  0.2752  0.0109
  304SOL    HW1  968   1.266   4.755   1.376  0.5481 -0.1132  0.2266
  304SOL    HW2  969   1.129   4.751   1.440  0.3724  1.5632 -0.0068
  305SOL     OW  970   4.961   1.639   0.472 -0.2421  0.6514  0.0429
  305SOL    HW1  971   4.958   1.658   0.378 -1.3767  1.9639  0.3191
  305SOL    HW2  972   4.943   1.546   0.478  0.4845  0.4168 -1.0766
  306SOL     OW  973   2.867   4.563   4.923  0.0051  0.1621  0.1155
  306SOL    HW1  974   2.822   4.489   4.962 -0.1718 -0.5978 -1.4338
  306SOL    HW2  975   2.807   4.594   4.855  0.5973  0.9546 -0.0583
  307SOL     OW  976   2.342   1.649   3.796 -0.0810 -0.2986 -0.2541
  307SOL    HW1  977   2.267   1.708   3.789 -0.3767 -0.8097 -1.7527
  307SOL    HW2  978   2.406   1.683   3.734  0.3806 -0.6615  0.0136
  308SOL     OW  979   1.494   4.662   0.070  0.2715  0.8674  0.7257
  308SOL    HW1  980   1.442   4.639   0.147 -0.4277 -0.9571 -0.2303
  308SOL    HW2  981   1.468   4.752   0.049 -1.8271  0.3545  0.8591
  309SOL     OW  982   4.016   3.643   0.748  0.1977 -0.6201 -0.1990
  309SOL    HW1  983   4.067   3.724   0.740  0.6516 -1.0657 -2.1247
  309SOL    HW2  984   3.937   3.660   0.698  0.3927 -1.4428 -0.7916
  310SOL     OW  985   1.193   1.539   4.501 -0.2336 -0.5215  0.4257
  310SOL    HW1  986   1.227   1.463   4.548  1.6330  0.3360  0.5538
  310SOL    HW2  987   1.194   1.610   4.566  0.0545  0.0976 -0.2408
  311SOL     OW  988   1.900   0.605   0.476  0.4758  0.6949 -0.9046
  311SOL    HW1  989   1.954   0.530   0.502 -1.1179  0.3530  1.7469
  311SOL    HW2  990   1.824   0.566   0.433 -0.6075  0.6626  0.9354
  312SOL     OW  991   0.201   2.733   1.818  0.0779  0.1569 -0.0908
  312SOL    HW1  992   0.172   2.802   1.759 -0.3972  1.0815  1.1640
  312SOL    HW2  993   0.126   2.674   1.827  0.0295  0.2108 -0.1469
  313SOL     OW  994   3.442   1.248   3.373  0.2501  0.0482  0.2626
  313SOL    HW1  995   3.361   1.197   3.385  0.5223 -0.8989 -1.6512
  313SOL    HW2  996   3.509   1.183   3.354  1.2025  0.9310  0.5138
  314SOL     OW  997   3.011   1.176   2.177  0.1394  0.1065 -0.5482
  314SOL    HW1  998   3.009   1.154   2.270  1.8788  0.2323 -0.4490
  314SOL    HW2  999   3.048   1.098   2.135  0.3806  0.4548 -0.9894
  315SOL     OW 1000   0.624   0.449   2.595 -0.0841 -0.3383  0.5646
  315SOL    HW1 1001   0.669   0.448   2.680 -0.4292 -1.6414  0.7496
  315SOL    HW2 1002   0.690   0.476   2.532  0.3521 -0.0149  1.1574
  316SOL     OW 1003   2.714   1.963   3.706 -0.7391 -0.5920  0.6946
  316SOL    HW1 1004   2.753   1.876   3.719 -1.7213 -1.0360  0.7734
  316SOL    HW2 1005   2.774   2.007   3.646 -0.1328 -1.2630  0.7873
  317SOL     OW 1006   2.822   3.797   3.151 -0.2617 -0.2052 -0.2803
  317SOL    HW1 1007   2.820   3.746   3.070 -2.1757  1.5445 -1.4286
  317SOL    HW2 1008   2.751   3.860   3.142  0.4328  1.0604  2.1248
  318SOL     OW 1009   4.799   1.653   0.738  0.0528 -1.1033  0.2214
  318SOL    HW1 1010   4.859   1.583   0.765  0.9333 -0.0979  0.9082
  318SOL    HW2 1011   4.851   1.707   0.679 -1.3430 -2.3371 -2.3379
  319SOL     OW 1012   4.532   1.819   1.305  0.0205  0.1448 -0.3552
  319SOL    HW1 1013   4.609   1.853   1.351 -0.3267  1.0683 -0.4294
  319SOL    HW2 1014   4.496   1.896   1.260 -0.2586 -0.5197 -1.2944
  320SOL     OW 1015   2.611   2.109   3.403 -0.1204  0.0302 -0.3226
  320SOL    HW1 1016   2.567   2.191   3.427 -0.5339 -0.1723 -0.3786
  320SOL    HW2 1017   2.620   2.062   3.485 -1.5551 -0.6723 -0.5297
  321SOL     OW 1018   4.502   1.394   4.610  0.1935 -0.2365 -0.4506
  321SOL    HW1 1019   4.490   1.485   4.585 -1.9226 -0.2354  0.3329
  321SOL    HW2 1020   4.574   1.395   4.672  1.1193  0.6854 -1.5081
  322SOL     OW 1021   4.933   3.856   2.754 -0.0219 -0.5872  0.2326
  322SOL    HW1 1022   4.934   3.822   2.843 -0.6983  0.3816  0.6322
  322SOL    HW2 1023   4.966   3.945   2.763  0.7003 -0.7632 -0.6195
  323SOL     OW 1024   0.574   1.909   0.231  0.0112  0.3736  0.3386
  323SOL    HW1 1025   0.526   1.826   0.235  1.9483 -1.0491 -2.3749
  323SOL    HW2 1026   0.639   1.903   0.301 -0.2907 -0.0876  0.5842
  324SOL     OW 1027   0.222   4.468   0.558  0.0794 -0.2672 -0.3789
  324SOL    HW1 1028   0.297   4.482   0.615  1.7936  0.2993 -2.6121
  324SOL    HW2 1029   0.251   4.399   0.498 -1.6382 -0.8482 -0.5854
  325SOL     OW 1030   2.125   4.655   0.056  0.2588 -0.1362 -0.1505
  325SOL    HW1 1031   2.080   4.614  -0.018  1.2837 -0.2616 -0.7131
  325SOL    HW2 1032   2.114   4.593   0.128 -1.6491  0.4482  0.1361
  326SOL     OW 1033   2.077   1.596   0.874 -0.0804  0.5704 -0.2510
  326SOL    HW1 1034   2.138   1.569   0.805 -1.2059 -0.5433 -0.8439
  326SOL    HW2 1035   2.000   1.627   0.826 -0.3970  0.9778  0.5084
  327SOL     OW 1036   3.628   1.790   1.735 -0.0437 -1.0764 -0.0946
  327SOL    HW1 1037   3.691   1.842   1.686 -0.7096  0.6507  0.8005
  327SOL    HW2 1038   3.681   1.735   1.792  0.6957  0.4481  0.7398
  328SOL     OW 1039   1.170   2.107   0.443  0.2815 -0.4254 -0.1006
  328SOL    HW1 1040   1.183   2.158   0.363  0.4759  0.2208  0.3399
  328SOL    HW2 1041   1.086   2.136   0.478  0.4317 -0.3380  0.1959
  329SOL     OW 1042   0.426   2.838   3.243  0.1532  0.2697 -0.5119
  329SOL    HW1 1043   0.487   2.783   3.195  1.2473  0.8202  0.1923
  329SOL    HW2 1044   0.444   2.927   3.213  2.2807  0.9092  2.2038
  330SOL     OW 1045   3.104   0.051   0.414 -0.3315  0.0107  0.2427
  330SOL    HW1 1046   3.194   0.023   0.434  0.0457 -1.0537 -2.5184
  330SOL    HW2 1047   3.114   0.141   0.382 -0.3284  0.0797  0.4352
  331SOL     OW 1048   0.703   3.383   4.680  0.3379  0.1456  0.3032
  331SOL    HW1 1049   0.678   3.313   4.741  0.9032 -0.7130 -0.4291
  331SOL    HW2 1050   0.793   3.405   4.704 -0.0415  1.0777  0.9346
  332SOL     OW 1051   2.701   4.190   2.633  0.2071  0.3029  0.2848
  332SOL    HW1 1052   2.640   4.182   2.707 -0.2501  1.8998  0.1082
  332SOL    HW2 1053   2.652   4.158   2.558  0.0104  0.4275  0.3582
  333SOL     OW 1054   2.717   2.971   2.598  0.1092 -0.1312 -0.1329
  333SOL    HW1 1055   2.752   3.047   2.644 -0.5639  0.6378 -0.8534
  333SOL    HW2 1056   2.784   2.951   2.532 -0.1145  0.3919 -0.5203
  334SOL     OW 1057   3.168   4.820   1.709 -0.2975 -0.1246  0.0772
  334SOL    HW1 1058   3.240   4.833   1.648 -1.2372 -2.5845 -1.7147
  334SOL    HW2 1059   3.208   4.780   1.786  0.3016 -1.3097 -0.8272
  335SOL     OW 1060   0.743   4.798   3.076 -0.4297  0.0583 -0.3069
  335SOL    HW1 1061   0.828   4.800   3.033  0.8560  0.0244  2.0339
  335SOL    HW2 1062   0.690   4.863   3.029  1.6107  1.6871 -0.4904
  336SOL     OW 1063   1.640   2.118   1.822  0.5061  0.0803 -0.2465
  336SOL    HW1 1064   1.725   2.125   1.779  0.3144 -0.1540 -0.6683
  336SOL    HW2 1065   1.658   2.071   1.904  0.4576 -2.0242 -1.3651
  337SOL     OW 1066   0.898   0.256   2.446  0.1931 -0.2308  0.2554
  337SOL    HW1 1067   0.905   0.346   2.478 -0.2607 -0.4451  0.9713
  337SOL    HW2 1068   0.989   0.225   2.442  0.2231 -0.5347  2.3409
  338SOL     OW 1069   3.033   0.601   1.648 -0.3503  0.6611  0.4477
  338SOL    HW1 1070   2.971   0.611   1.721 -1.7588  1.5292 -0.8072
  338SOL    HW2 1071   3.000   0.660   1.580  2.8762  2.6080  0.3467
  339SOL     OW 1072   4.232   3.018   3.428 -0.2021 -0.1021  0.0852
  339SOL    HW1 1073   4.206   2.963   3.354 -0.3594  0.2841 -0.1437
  339SOL    HW2 1074   4.248   3.104   3.390  2.3657 -0.5123  0.0124
  340SOL     OW 1075   0.055   3.634   3.394  0.3783 -0.5714 -0.2330
  340SOL    HW1 1076   0.026   3.713   3.348  0.4674  0.0938  0.8167
  340SOL    HW2 1077   0.038   3.563   3.332 -2.2359 -0.0796 -0.2274
  341SOL     OW 1078   2.557   4.034   2.803 -0.0455  0.5030 -0.3446
  341SOL    HW1 1079   2.528   4.077   2.883  0.0210  0.5824 -0.3643
  341SOL    HW2 1080   2.592   3.949   2.832  0.5732  0.7966 -0.2235
  342SOL     OW 1081   0.945   0.147   2.132  0.2167  0.6997  0.4557
  342SOL    HW1 1082   0.887   0.071   2.132  1.9166 -0.6309  0.1197
  342SOL    HW2 1083   0.896   0.213   2.182 -1.6643 -0.2808  0.0288
  343SOL     OW 1084   3.818   2.044   1.660  0.0532 -0.1235  0.8648
  343SOL    HW1 1085   3.843   2.135   1.676 -0.7654  0.7241 -2.0546
  343SOL    HW2 1086   3.761   2.048   1.583 -1.6172 -2.9226  1.8193
  344SOL     OW 1087   4.873   2.402   3.187 -0.6528 -0.0291  0.3016
  344SOL    HW1 1088   4.921   2.336   3.236 -1.7029 -2.0840 -1.3120
  344SOL    HW2 1089   4.781   2.388   3.210 -0.9166  0.7292 -0.2235
  345SOL     OW 1090   2.777   2.928   1.531 -0.2883 -0.1389  0.0372
  345SOL    HW1 1091   2.801   2.836   1.528 -0.7075 -0.2406 -0.4128
  345SOL    HW2 1092   2.771   2.954   1.439 -2.2126 -0.2200  0.1046
  346SOL     OW 1093   2.468   3.337   0.090  0.4007 -0.2754  0.0485
  346SOL    HW1 1094   2.452   3.382   0.007  2.0834  0.3957  0.0641
  346SOL    HW2 1095   2.563   3.334   0.098  0.2767  0.8970  2.6164
  347SOL     OW 1096   4.155   0.714   4.735 -0.5084 -0.3801 -0.6877
  347SOL    HW1 1097   4.093   0.756   4.674  0.0865 -1.1026 -1.8351
  347SOL    HW2 1098   4.108   0.711   4.818 -1.6686 -0.0602 -1.3012
  348SOL     OW 1099   1.889   0.244   4.077  0.0073 -0.1713 -0.0374
  348SOL    HW1 1100   1.926   0.332   4.086 -0.3870  0.1805 -1.5737
  348SOL    HW2 1101   1.961   0.185   4.100  0.9008  0.5382 -0.9335
  349SOL     OW 1102   1.065   3.731   2.167  0.9843 -0.3672  0.1158
  349SOL    HW1 1103   1.048   3.680   2.088  0.8200  0.8610 -0.6680
  349SOL    HW2 1104   1.158   3.718   2.184  0.6891 -1.9262  0.6726
  350SOL     OW 1105   4.858   0.901   2.965 -0.2320  0.0446  0.3611
  350SOL    HW1 1106   4.778   0.902   3.018 -0.3940 -1.5478  0.2141
  350SOL    HW2 1107   4.884   0.809   2.965  1.1093  0.4067 -0.3453
  351SOL     OW 1108   2.673   4.017   3.130  0.3092  0.0752 -0.5786
  351SOL    HW1 1109   2.686   4.075   3.204  1.0369  2.6842 -2.5848
  351SOL    HW2 1110   2.581   4.029   3.105 -0.2621 -1.6726  0.5007
  352SOL     OW 1111   2.442   4.788   3.715  0.7580  1.0957  0.0903
  352SOL    HW1 1112   2.511   4.852   3.698 -0.5591  2.2217 -1.4334
  352SOL    HW2 1113   2.408   4.767   3.628  0.0311 -0.4050  0.7117
  353SOL     OW 1114   2.472   2.185   4.124 -0.6055 -0.4357 -0.3917
  353SOL    HW1 1115   2.511   2.155   4.205  0.2385 -0.5421 -0.8311
  353SOL    HW2 1116   2.474   2.109   4.066  1.9184  0.4858 -1.6533
  354SOL     OW 1117   3.956   4.250   2.998 -0.3625  0.5459 -0.8168
  354SOL    HW1 1118   3.902   4.204   3.062  0.7210  0.5670  0.1325
  354SOL    HW2 1119   4.045   4.221   3.016  0.1943  2.0174 -1.0509
  355SOL     OW 1120   4.275   2.627   2.993 -0.3851  0.0758  0.3243
  355SOL    HW1 1121   4.346   2.691   2.999  1.8199 -1.6560 -3.4272
  355SOL    HW2 1122   4.308   2.551   3.042  0.4629 -0.7035 -1.3621
  356SOL     OW 1123   4.153   0.458   1.146  0.3099  0.2661  0.0327
  356SOL    HW1 1124   4.172   0.501   1.063  2.2098 -0.6117 -0.0294
  356SOL    HW2 1125   4.185   0.368   1.135 -0.4615 -0.2050  1.3195
  357SOL     OW 1126   3.395   2.153   1.554 -0.0259 -0.4072 -0.6045
  357SOL    HW1 1127   3.349   2.162   1.471  1.1316 -2.0483 -1.4916
  357SOL    HW2 1128   3.488   2.163   1.531  0.3404 -1.3253  0.3883
  358SOL     OW 1129   3.285   1.575   1.422  0.1322  0.2497  0.1105
  358SOL    HW1 1130   3.368   1.623   1.427 -0.2225  0.8296  0.5960
  358SOL    HW2 1131   3.309   1.491   1.383  0.9420  0.4273  0.1917
  359SOL     OW 1132   4.939   3.870   3.719 -0.1017  0.6849  0.6999
  359SOL    HW1 1133   5.002   3.888   3.790  0.0605  0.0348  0.7251
  359SOL    HW2 1134   4.893   3.792   3.748 -2.0676  2.0341  1.4454
  360SOL     OW 1135   2.654   0.264   3.256 -0.7493 -0.3847  0.0247
  360SOL    HW1 1136   2.664   0.357   3.235 -2.3038 -0.2635 -0.2966
  360SOL    HW2 1137   2.693   0.218   3.182 -0.6092  0.0255 -0.1595
  361SOL     OW 1138   3.388   3.381   0.819  0.6737 -0.1549 -0.4009
  361SOL    HW1 1139   3.409   3.296   0.781 -0.2739 -0.6511  0.1770
  361SOL    HW2 1140   3.345   3.361   0.902 -0.1778  0.8719 -0.5799
  362SOL     OW 1141   3.051   1.349   0.352  0.2377  0.1526 -0.3796
  362SOL    HW1 1142   3.062   1.407   0.427  2.1176 -1.3803  0.6370
  362SOL    HW2 1143   3.100   1.391   0.282  0.2794  0.5443 -0.1225
  363SOL     OW 1144   1.577   0.831   2.954  0.5912 -0.2273 -0.0660
  363SOL    HW1 1145   1.486   0.854   2.972  0.9803  1.0881  0.3448
  363SOL    HW2 1146   1.599   0.879   2.874  0.8417 -0.7921 -0.3437
  364SOL     OW 1147   2.134   4.858   4.683 -0.4973  0.1249 -0.1728
  364SOL    HW1 1148   2.060   4.897   4.730  0.1067  0.0002  0.9209
  364SOL    HW2 1149   2.125   4.764   4.698 -0.6417  0.0300 -0.8354
  365SOL     OW 1150   3.500   0.369   1.119 -0.0750 -0.4397 -0.4303
  365SOL    HW1 1151   3.569   0.396   1.180  0.2213 -0.0264 -0.9303
  365SOL    HW2 1152   3.499   0.439   1.053 -1.5245 -0.0193 -0.0018
  366SOL     OW 1153   4.540   2.177   3.123  0.5004 -0.6681  0.2967
  366SOL    HW1 1154   4.486   2.255   3.112 -0.5113 -1.6877 -2.8064
  366SOL    HW2 1155   4.479   2.110   3.154  0.6106 -1.0784 -0.3608
  367SOL     OW 1156   4.492   0.717   3.806 -0.3026  0.2074 -0.3082
  367SOL    HW1 1157   4.477   0.714   3.712 -0.8676 -2.3973 -0.2020
  367SOL    HW2 1158   4.585   0.697   3.816 -0.4092 -0.3067 -0.3045
  368SOL     OW 1159   0.948   2.397   1.707  0.3862  0.2259 -0.7804
  368SOL    HW1 1160   0.948   2.485   1.669  2.5475  0.6665  0.1215
  368SOL    HW2 1161   0.856   2.371   1.705 -0.3641  2.6057 -0.8135
  369SOL     OW 1162   4.624   1.731   3.522 -0.3567  0.1714  0.2821
  369SOL    HW1 1163   4.652   1.819   3.497 -0.5685  0.3533  0.6758
  369SOL    HW2 1164   4.624   1.681   3.440  0.7951  0.2497  0.2195
  370SOL     OW 1165   1.892   0.461   2.275  0.0097  0.1263 -0.4154
  370SOL    HW1 1166   1.912   0.505   2.193  0.6427  0.1114 -0.2745
  370SOL    HW2 1167   1.814   0.409   2.256  0.1001  0.1892 -0.9835
  371SOL     OW 1168   1.624   0.573   4.961  0.5105  0.4578  0.2311
  371SOL    HW1 1169   1.618   0.617   5.045  0.5107 -2.3315  1.7910
  371SOL    HW2 1170   1.716   0.579   4.937  0.6208  0.7268  0.7175
  372SOL     OW 1171   0.865   2.448   3.311  0.0175  0.2018 -0.4916
  372SOL    HW1 1172   0.944   2.437   3.365  0.7991  0.4685 -1.5310
  372SOL    HW2 1173   0.835   2.536   3.330  0.0699  0.1592 -0.2103
  373SOL     OW 1174   0.914   0.402   1.021 -0.3280  0.2602 -0.2391
  373SOL    HW1 1175   0.900   0.476   1.080  2.6618 -1.1293  2.4954
  373SOL    HW2 1176   0.970   0.437   0.951 -0.2501  0.9481  0.1557
  374SOL     OW 1177   3.007   3.503   0.436 -0.4703 -0.0936 -0.2233
  374SOL    HW1 1178   3.022   3.515   0.343 -1.6466  2.1375 -0.2011
  374SOL    HW2 1179   2.935   3.564   0.457  1.1746  1.1287  2.5314
  375SOL     OW 1180   0.358   3.847   3.490  0.0764  0.3566  0.1654
  375SOL    HW1 1181   0.371   3.762   3.449  1.0749 -0.0333  1.2182
  375SOL    HW2 1182   0.422   3.904   3.447 -0.2362  0.4466 -0.1816
  376SOL     OW 1183   0.671   1.117   3.550 -0.1669 -0.0832 -0.1421
  376SOL    HW1 1184   0.631   1.168   3.480 -1.6580  0.4216  1.0230
  376SOL    HW2 1185   0.635   1.029   3.540  0.0512 -0.1489 -0.3438
  377SOL     OW 1186   1.042   2.303   4.533 -0.7447  0.6989  0.0818
  377SOL    HW1 1187   0.992   2.340   4.460  2.0031  0.4127 -2.1125
  377SOL    HW2 1188   1.001   2.218   4.549 -0.2701 -0.1432 -2.5789
  378SOL     OW 1189   1.443   1.819   3.049 -0.3898 -0.6999 -0.0502
  378SOL    HW1 1190   1.374   1.788   2.990 -2.1348 -0.5251  1.7946
  378SOL    HW2 1191   1.484   1.739   3.082 -2.3143 -1.0340  1.7427
  379SOL     OW 1192   3.370   4.639   3.668 -0.3914  0.3683 -0.4064
  379SOL    HW1 1193   3.414   4.554   3.675  0.5960  0.9534  0.7931
  379SOL    HW2 1194   3.423   4.688   3.605 -0.3517  0.4654 -0.2970
  380SOL     OW 1195   2.416   4.105   1.901  0.1590  0.0624 -0.2362
  380SOL    HW1 1196   2.422   4.144   1.814  0.0825  1.6147  0.4205
  380SOL    HW2 1197   2.506   4.103   1.933 -0.0615  1.8536  0.6045
  381SOL     OW 1198   4.970   0.263   1.889 -0.2106  0.8299  0.3600
  381SOL    HW1 1199   4.916   0.324   1.839 -0.5452 -0.3610 -0.7996
  381SOL    HW2 1200   4.977   0.302   1.976 -2.9361  1.0355  0.5652
  382SOL     OW 1201   1.401   1.484   1.816 -0.6436  0.0319 -0.1558
  382SOL    HW1 1202   1.478   1.431   1.834 -1.8191 -1.8672 -0.3663
  382SOL    HW2 1203   1.435   1.566   1.780  1.2392 -0.8212 -0.4166
  383SOL     OW 1204   3.669   1.082   1.192 -0.3265  0.1339 -0.0914
  383SOL    HW1 1205   3.650   1.160   1.244 -0.5033 -1.5909  2.6342
  383SOL    HW2 1206   3.761   1.064   1.208 -0.7399 -1.2434  0.8605
  384SOL     OW 1207   1.967   4.513   1.613 -0.2232  0.0870  0.0949
  384SOL    HW1 1208   1.924   4.599   1.617 -2.3218 -0.8048 -1.6883
  384SOL    HW2 1209   1.896   4.450   1.619  1.2588 -1.5843  1.1729
  385SOL     OW 1210   0.537   3.600   4.680  0.0865  0.9150 -0.3240
  385SOL    HW1 1211   0.605   3.551   4.726 -0.4039  1.1191  0.6296
  385SOL    HW2 1212   0.480   3.533   4.643  0.5011  0.7493 -0.6711
  386SOL     OW 1213   1.761   1.706   4.082 -0.2343  0.5009  0.0144
  386SOL    HW1 1214   1.778   1.616   4.110  0.8535  0.2851 -1.2592
  386SOL    HW2 1215   1.796   1.711   3.993 -2.2639  1.5803 -0.7943
  387SOL     OW 1216   0.812   1.623   1.049 -0.0658 -0.5839 -0.4071
  387SOL    HW1 1217   0.722   1.620   1.017 -0.3229  0.6876  0.1538
  387SOL    HW2 1218   0.844   1.710   1.025  1.3297 -1.3115 -1.3766
  388SOL     OW 1219   0.252   3.545   4.351  0.0377 -0.6104 -0.4134
  388SOL    HW1 1220   0.269   3.511   4.439  1.1116  0.4133 -0.1969
  388SOL    HW2 1221   0.337   3.541   4.307 -0.1759  0.2296 -0.9229
  389SOL     OW 1222   1.551   1.491   2.942 -0.0408  0.6999 -0.1776
  389SOL    HW1 1223   1.623   1.509   2.882  0.3545  2.2841  0.7331
  389SOL    HW2 1224   1.475   1.478   2.884  0.8629 -0.6409 -1.1217
  390SOL     OW 1225   4.203   3.734   1.541  0.1644  0.2121 -0.2815
  390SOL    HW1 1226   4.222   3.649   1.500  0.8817  0.1380  0.1908
  390SOL    HW2 1227   4.155   3.782   1.474  0.9697 -0.0591 -1.0765
  391SOL     OW 1228   1.660   4.360   4.795 -0.1204  0.0259 -0.2968
  391SOL    HW1 1229   1.731   4.395   4.741 -0.7139  1.8439  0.0312
  391SOL    HW2 1230   1.586   4.420   4.780 -0.3931  0.4761  2.2759
  392SOL     OW 1231   0.986   3.035   4.325 -0.2840  0.7457 -0.2469
  392SOL    HW1 1232   0.977   3.111   4.267  0.0932  0.7049 -0.3619
  392SOL    HW2 1233   1.061   3.056   4.380 -0.6342  0.7784  0.2202
  393SOL     OW 1234   3.788   1.567   4.899  0.0815 -0.1920  0.4964
  393SOL    HW1 1235   3.836   1.536   4.976 -0.0332 -2.3670 -0.2393
  393SOL    HW2 1236   3.837   1.531   4.825 -3.5332 -4.2797 -0.2996
  394SOL     OW 1237   0.791   2.941   1.609 -0.4231 -0.0278  0.7137
  394SOL    HW1 1238   0.726   2.872   1.621  0.3643 -0.6773  1.4064
  394SOL    HW2 1239   0.834   2.949   1.694  0.3835  0.4010  0.2858
  395SOL     OW 1240   0.978   1.401   3.133 -0.2481 -0.2964 -0.3475
  395SOL    HW1 1241   1.019   1.342   3.195  2.0537  0.6028 -0.9219
  395SOL    HW2 1242   0.995   1.362   3.047 -0.2420  0.2990 -0.6234
  396SOL     OW 1243   4.366   3.838   4.788  0.0376 -0.5107  0.4667
  396SOL    HW1 1244   4.421   3.821   4.865  0.7220  1.9676  0.6355
  396SOL    HW2 1245   4.423   3.820   4.713 -0.5659 -2.7331  0.4926
  397SOL     OW 1246   3.644   1.332   2.367 -0.0565  0.6575 -0.0154
  397SOL    HW1 1247   3.596   1.412   2.348  1.7730  1.2677 -2.7501
  397SOL    HW2 1248   3.733   1.361   2.385  0.8157 -0.6991 -1.7334
  398SOL     OW 1249   3.459   2.854   4.096  0.2118  0.3967  1.0451
  398SOL    HW1 1250   3.399   2.853   4.022  0.2771 -0.6259  0.9941
  398SOL    HW2 1251   3.506   2.937   4.088 -1.1109  1.1744  1.0299
  399SOL     OW 1252   3.516   1.129   0.943 -0.4377  0.0486  0.4648
  399SOL    HW1 1253   3.575   1.188   0.897 -0.6942  0.5461  0.7677
  399SOL    HW2 1254   3.568   1.094   1.015 -0.1143 -0.5360 -0.0435
  400SOL     OW 1255   4.438   1.935   3.187  0.3709  0.1050  0.3133
  400SOL    HW1 1256   4.394   1.917   3.104  1.3043 -1.5122  0.1365
  400SOL    HW2 1257   4.525   1.896   3.178  1.0640  1.2715  1.4907
  401SOL     OW 1258   3.045   0.093   1.890  0.3746 -0.0885 -0.6480
  401SOL    HW1 1259   2.964   0.056   1.854  0.1285  0.2242 -0.4228
  401SOL    HW2 1260   3.047   0.182   1.856  1.3794 -0.5410 -1.8503
  402SOL     OW 1261   2.850   0.178   0.078  0.1600 -0.1181  0.5028
  402SOL    HW1 1262   2.915   0.170   0.007 -0.9745  0.0771 -0.5839
  402SOL    HW2 1263   2.866   0.265   0.115 -0.1765  0.3878 -0.4906
  403SOL     OW 1264   1.173   2.398   4.753  0.6702 -0.2997 -0.2644
  403SOL    HW1 1265   1.156   2.396   4.659 -0.5545 -0.1597 -0.0602
  403SOL    HW2 1266   1.167   2.306   4.780 -2.6143 -0.0577  0.2420
  404SOL     OW 1267   4.628   0.432   2.509  0.0008  0.0975 -0.2939
  404SOL    HW1 1268   4.654   0.500   2.447 -0.7346 -0.0297 -0.7601
  404SOL    HW2 1269   4.688   0.360   2.494  1.4172  0.9805  0.8766
  405SOL     OW 1270   1.817   2.352   0.681  0.2217 -0.9693 -0.2392
  405SOL    HW1 1271   1.858   2.348   0.768  1.8887 -2.5692 -1.0357
  405SOL    HW2 1272   1.890   2.350   0.620 -0.9797 -1.5685 -1.7042
  406SOL     OW 1273   0.909   2.053   1.826 -0.1589  0.1898 -0.0177
  406SOL    HW1 1274   0.962   1.983   1.790 -1.4196  0.2737 -2.1569
  406SOL    HW2 1275   0.823   2.014   1.842 -0.0347  0.5155  1.6624
  407SOL     OW 1276   1.042   3.928   1.254 -0.4005 -0.0512 -0.5326
  407SOL    HW1 1277   1.012   3.941   1.344 -1.1907 -0.3443 -0.7407
  407SOL    HW2 1278   1.092   4.007   1.233 -0.2764  0.0543  0.1303
  408SOL     OW 1279   0.020   0.214   0.680 -0.1911 -0.3426 -0.1471
  408SOL    HW1 1280  -0.053   0.185   0.736 -2.3539  2.0198 -1.5421
  408SOL    HW2 1281   0.092   0.230   0.741 -0.9507 -2.2127  1.3627
  409SOL     OW 1282   4.707   4.471   0.720  0.0890 -0.5620 -0.0597
  409SOL    HW1 1283   4.642   4.403   0.734  0.8421 -1.1155  0.8777
  409SOL    HW2 1284   4.787   4.424   0.695 -0.1301  0.1665 -2.3495
  410SOL     OW 1285   3.941   3.557   1.635 -0.3801  0.3851 -0.7657
  410SOL    HW1 1286   3.987   3.626   1.587 -0.3177  1.2990  0.5750
  410SOL    HW2 1287   3.851   3.562   1.604 -0.0619  0.0345 -1.7972
  411SOL     OW 1288   1.817   0.211   2.583 -0.2492  0.5777  0.0060
  411SOL    HW1 1289   1.789   0.302   2.592  0.1322  0.7362 -0.3695
  411SOL    HW2 1290   1.868   0.209   2.502  1.8834  0.5809  1.2767
  412SOL     OW 1291   2.452   2.808   4.853  0.3253  0.1182  0.1092
  412SOL    HW1 1292   2.539   2.831   4.885 -0.5520  3.1312  0.6028
  412SOL    HW2 1293   2.464   2.793   4.759  1.4519 -0.1305  0.2838
  413SOL     OW 1294   3.952   0.991   2.410 -0.6340 -0.1297  0.1367
  413SOL    HW1 1295   3.930   0.907   2.369 -1.1956 -0.8996  1.9356
  413SOL    HW2 1296   3.867   1.033   2.425 -0.3730  0.6351 -0.4316
  414SOL     OW 1297   0.577   4.221   2.282 -0.4553  0.2942  0.2840
  414SOL    HW1 1298   0.667   4.190   2.287 -0.4429 -0.2815 -2.1300
  414SOL    HW2 1299   0.528   4.146   2.248 -1.4838  1.1628 -0.2070
  415SOL     OW 1300   3.446   2.830   0.357 -0.1292 -0.0986  0.2060
  415SOL    HW1 1301   3.528   2.835   0.309  0.2517  1.5144  0.9556
  415SOL    HW2 1302   3.462   2.765   0.426  0.4568  0.0690  0.2342
  416SOL     OW 1303   1.852   0.586   0.195 -0.0697 -0.3022 -0.5863
  416SOL    HW1 1304   1.881   0.614   0.109  0.1332 -0.3396 -0.5321
  416SOL    HW2 1305   1.915   0.625   0.256 -0.7195  0.4392 -0.3842
  417SOL     OW 1306   3.251   1.692   4.674  0.0812 -0.1688  0.3966
  417SOL    HW1 1307   3.266   1.637   4.750 -0.7100 -2.2503 -0.8732
  417SOL    HW2 1308   3.307   1.656   4.606 -1.0610  0.0601 -0.7058
  418SOL     OW 1309   0.232   3.418   1.651  0.3132  0.3394 -0.7434
  418SOL    HW1 1310   0.199   3.359   1.719 -1.1319  0.5704 -1.1897
  418SOL    HW2 1311   0.204   3.378   1.569  1.1412  0.5874 -1.1577
  419SOL     OW 1312   4.920   4.358   2.259 -0.1120  0.0327  0.3685
  419SOL    HW1 1313   4.992   4.364   2.322 -1.0907 -0.2915  1.5761
  419SOL    HW2 1314   4.851   4.312   2.307 -0.5334 -1.1430 -1.3155
  420SOL     OW 1315   1.564   3.546   4.224  0.3814  0.2154  0.0448
  420SOL    HW1 1316   1.512   3.597   4.286  0.5194  0.5005 -0.0726
  420SOL    HW2 1317   1.559   3.595   4.142  1.0363  0.3787  0.0964
  421SOL     OW 1318   4.408   3.778   2.494  0.4959  0.1303  0.4821
  421SOL    HW1 1319   4.365   3.823   2.567 -0.5447  0.2816 -0.2004
  421SOL    HW2 1320   4.465   3.844   2.455 -1.6010  1.2073 -0.9986
  422SOL     OW 1321   2.289   1.475   2.307 -0.2608 -0.4516 -0.6754
  422SOL    HW1 1322   2.196   1.455   2.306 -0.7371  1.5580 -0.4644
  422SOL    HW2 1323   2.317   1.466   2.216 -0.9615  0.1232 -0.9570
  423SOL     OW 1324   0.382   1.593   2.705 -0.1404  0.0808  0.0179
  423SOL    HW1 1325   0.434   1.620   2.780 -0.7814 -0.7066  0.7751
  423SOL    HW2 1326   0.438   1.609   2.629  1.7328 -1.8736  0.8602
  424SOL     OW 1327   2.178   0.164   4.079 -0.0429  0.0676  0.7428
  424SOL    HW1 1328   2.223   0.166   4.164  0.2621 -0.6319  0.6027
  424SOL    HW2 1329   2.213   0.087   4.035 -0.1761  0.4437 -0.0399
  425SOL     OW 1330   3.316   2.298   0.991 -0.1467 -0.3540  0.1772
  425SOL    HW1 1331   3.373   2.247   0.934  0.1106  0.0885  0.0324
  425SOL    HW2 1332   3.253   2.339   0.932 -1.6309 -2.0893  0.4786
  426SOL     OW 1333   3.100   4.353   2.972 -0.2192 -0.2551 -0.4003
  426SOL    HW1 1334   3.103   4.259   2.989  0.9894 -0.1556  0.0220
  426SOL    HW2 1335   3.034   4.387   3.032  1.1598 -0.4886  1.3488
  427SOL     OW 1336   0.073   0.274   3.272 -0.5435 -0.0223 -0.4956
  427SOL    HW1 1337   0.034   0.209   3.214 -1.5433 -0.1214  0.2623
  427SOL    HW2 1338   0.028   0.356   3.249  0.7114  0.4229 -1.4503
  428SOL     OW 1339   4.265   3.967   4.527 -0.6406  0.0033  0.0774
  428SOL    HW1 1340   4.326   3.909   4.572 -0.8500 -1.0486 -0.9451
  428SOL    HW2 1341   4.321   4.032   4.485 -0.3039 -0.2672  0.1002
  429SOL     OW 1342   1.289   4.283   2.991 -0.3571 -0.2374 -0.5215
  429SOL    HW1 1343   1.214   4.292   2.933  1.4771  2.0437 -2.7958
  429SOL    HW2 1344   1.267   4.335   3.068 -2.2450 -2.1181  0.3067
  430SOL     OW 1345   0.464   0.555   3.630 -0.1491 -0.2419  0.0066
  430SOL    HW1 1346   0.559   0.567   3.632 -0.0824 -0.4556 -1.0783
  430SOL    HW2 1347   0.429   0.638   3.661  0.3935 -0.0210  0.0438
  431SOL     OW 1348   2.944   1.422   2.612 -0.1338  0.0817 -0.4131
  431SOL    HW1 1349   2.899   1.358   2.556  1.4999 -1.1763 -0.3614
  431SOL    HW2 1350   2.983   1.369   2.682 -1.2018  1.5014  1.3460
  432SOL     OW 1351   0.931   1.192   4.930 -0.3375 -0.5778  0.1075
  432SOL    HW1 1352   0.949   1.188   5.024  0.4604 -0.3237 -0.0253
  432SOL    HW2 1353   0.858   1.132   4.916 -0.2358 -0.8730  0.8373
  433SOL     OW 1354   2.415   1.734   0.551 -0.0439  0.6603  0.1725
  433SOL    HW1 1355   2.418   1.748   0.457  0.7387  1.4619  0.3016
  433SOL    HW2 1356   2.486   1.790   0.586 -1.0368  1.2512  1.3272
  434SOL     OW 1357   3.013   0.646   2.713  0.3411  0.6062 -0.1240
  434SOL    HW1 1358   3.039   0.554   2.721 -2.5509 -0.1495  2.9519
  434SOL    HW2 1359   2.941   0.646   2.650  0.3520  0.7516 -0.1377
  435SOL     OW 1360   4.312   4.430   3.563  0.6190  0.1507  0.6019
  435SOL    HW1 1361   4.320   4.525   3.552  1.6001 -0.0591 -0.5975
  435SOL    HW2 1362   4.393   4.403   3.606  1.9873 -0.5839 -2.2408
  436SOL     OW 1363   2.311   1.186   4.973 -0.2042  0.1032 -0.0097
  436SOL    HW1 1364   2.349   1.106   4.939  0.5947  0.8796 -1.0079
  436SOL    HW2 1365   2.325   1.251   4.904 -2.3999  0.7051  0.0199
  437SOL     OW 1366   3.859   4.554   3.654  0.0183 -0.0508  0.5277
  437SOL    HW1 1367   3.898   4.572   3.569 -1.7298 -1.7435 -0.7352
  437SOL    HW2 1368   3.852   4.458   3.658 -1.1871  0.0528  1.9726
  438SOL     OW 1369   4.959   1.404   2.396  0.6574 -0.0635 -0.4520
  438SOL    HW1 1370   4.930   1.323   2.438 -0.0396 -0.4275 -1.5803
  438SOL    HW2 1371   4.891   1.468   2.419 -0.0919 -0.4334 -1.5196
  439SOL     OW 1372   4.269   0.128   3.165 -0.1101 -0.4974 -0.0524
  439SOL    HW1 1373   4.265   0.161   3.255 -0.5296 -0.9568  0.1033
  439SOL    HW2 1374   4.357   0.150   3.135  0.4344 -1.3432  0.8640
  440SOL     OW 1375   1.211   4.208   3.363 -0.2961  0.1680 -0.1580
  440SOL    HW1 1376   1.222   4.295   3.326  0.9632  0.9441  1.8931
  440SOL    HW2 1377   1.129   4.213   3.411 -1.0023 -0.2927 -1.2594
  441SOL     OW 1378   1.557   0.669   4.704  0.6910  0.1094 -0.2515
  441SOL    HW1 1379   1.561   0.638   4.795  0.9879  1.0772  0.0798
  441SOL    HW2 1380   1.593   0.758   4.708  1.3537 -0.0892 -1.4355
  442SOL     OW 1381   1.701   3.385   1.258 -0.5572  0.6562  0.7378
  442SOL    HW1 1382   1.709   3.477   1.281 -0.7415  1.6254 -2.6048
  442SOL    HW2 1383   1.791   3.353   1.254 -0.3024  1.4682 -0.6528
  443SOL     OW 1384   0.067   4.719   1.397  0.2176  0.5235  1.0767
  443SOL    HW1 1385   0.008   4.644   1.389  0.3585  0.4823  0.3041
  443SOL    HW2 1386   0.052   4.770   1.317  1.5637  0.2464  0.6169
  444SOL     OW 1387   0.048   0.529   0.202  0.4416  0.4580 -0.7094
  444SOL    HW1 1388   0.011   0.441   0.208  1.6843 -0.1099 -1.0943
  444SOL    HW2 1389  -0.024   0.587   0.227 -0.1833 -0.7067  0.3043
  445SOL     OW 1390   0.111   0.520   4.924  0.2825  0.4273 -0.3694
  445SOL    HW1 1391   0.086   0.534   5.016  1.1015 -0.0239 -0.0576
  445SOL    HW2 1392   0.103   0.606   4.883 -2.9083  0.1305 -0.6347
  446SOL     OW 1393   3.470   4.643   4.312  0.3361  0.7843  0.1412
  446SOL    HW1 1394   3.401   4.700   4.345 -0.3536  0.4837 -0.7236
  446SOL    HW2 1395   3.468   4.656   4.217  0.7046 -0.0789  0.0056
  447SOL     OW 1396   4.518   1.270   1.590  0.2842 -0.6335  0.3866
  447SOL    HW1 1397   4.571   1.321   1.529  0.9065 -0.5316  0.9963
  447SOL    HW2 1398   4.458   1.334   1.628  0.5605 -0.4983  0.6016
  448SOL     OW 1399   4.034   4.723   4.680  0.6322  0.1570  0.1967
  448SOL    HW1 1400   3.994   4.770   4.607  0.8155 -1.2463 -0.8667
  448SOL    HW2 1401   3.967   4.660   4.707  0.8578  0.1301  0.6923
  449SOL     OW 1402   2.153   0.183   2.529 -0.1535 -0.1099  0.2707
  449SOL    HW1 1403   2.167   0.104   2.476  0.3103  0.2364 -0.1285
  449SOL    HW2 1404   2.197   0.253   2.481 -0.8806  0.4743  0.4239
  450SOL     OW 1405   2.815   0.710   2.480  0.0980  0.3168  0.2277
  450SOL    HW1 1406   2.742   0.709   2.542  0.5905 -0.0280  0.8099
  450SOL    HW2 1407   2.811   0.796   2.440 -0.1566  0.5918  0.8294
  451SOL     OW 1408   3.700   2.110   2.130  0.0824 -0.1333 -0.3016
  451SOL    HW1 1409   3.684   2.135   2.221 -0.1302  1.2238 -0.6853
  451SOL    HW2 1410   3.695   2.014   2.130  0.3889 -0.1690  1.1592
  452SOL     OW 1411   4.538   4.062   4.373  0.3314  0.1349  0.5979
  452SOL    HW1 1412   4.600   3.989   4.385 -1.0825 -1.5804 -1.6984
  452SOL    HW2 1413   4.580   4.119   4.309  1.4456  1.4996  2.4072
  453SOL     OW 1414   3.809   3.963   3.455  0.0073  0.5604 -0.3730
  453SOL    HW1 1415   3.738   3.906   3.424 -0.2223  1.3403 -1.3514
  453SOL    HW2 1416   3.781   3.992   3.541  0.5962 -1.5734  0.6221
  454SOL     OW 1417   1.182   0.280   2.440 -0.0322  0.1843  0.0012
  454SOL    HW1 1418   1.210   0.310   2.527 -1.0425 -0.7471  0.6795
  454SOL    HW2 1419   1.256   0.229   2.407  0.2882  0.3813  0.4072
  455SOL     OW 1420   4.078   1.638   3.972  0.4011  0.3830  0.4290
  455SOL    HW1 1421   3.992   1.597   3.957  1.1077 -1.0141 -0.0365
  455SOL    HW2 1422   4.095   1.624   4.065  1.5477 -2.4349 -0.0807
  456SOL     OW 1423   0.141   0.586   3.716 -0.0014  0.4542  0.0631
  456SOL    HW1 1424   0.194   0.523   3.667 -1.0576  0.2040 -0.8112
  456SOL    HW2 1425   0.204   0.639   3.764  0.9446 -1.1328  0.6639
  457SOL     OW 1426   0.203   3.829   4.050 -0.0742 -0.6492  0.2370
  457SOL    HW1 1427   0.174   3.912   4.089 -1.6386 -1.0821  0.0539
  457SOL    HW2 1428   0.291   3.816   4.086 -0.5408  0.1444  1.7648
  458SOL     OW 1429   0.579   3.385   3.009 -0.3534  0.6207  0.1137
  458SOL    HW1 1430   0.593   3.440   3.086  1.2843 -1.1440  1.1445
  458SOL    HW2 1431   0.634   3.424   2.941  0.1790  0.7328  0.6000
  459SOL     OW 1432   3.525   2.953   1.193  0.1341  0.0201 -0.1337
  459SOL    HW1 1433   3.544   3.018   1.125  1.9052 -1.1902 -0.8585
  459SOL    HW2 1434   3.538   3.000   1.276  0.4855  0.8395 -0.6433
  460SOL     OW 1435   4.793   0.316   4.050  0.3666  0.4746  0.3931
  460SOL    HW1 1436   4.814   0.223   4.044 -1.2372  0.0669  0.6647
  460SOL    HW2 1437   4.801   0.348   3.960 -0.1042 -0.1699  0.1141
  461SOL     OW 1438   2.918   1.324   2.879  0.2605 -0.2952  0.2814
  461SOL    HW1 1439   2.973   1.251   2.907 -0.4054 -0.8466  0.1719
  461SOL    HW2 1440   2.833   1.307   2.920  0.0734  0.3734  0.1824
  462SOL     OW 1441   1.043   4.544   3.164 -0.4893  0.3496 -0.2942
  462SOL    HW1 1442   1.080   4.616   3.113 -0.5905  0.3220 -0.4062
  462SOL    HW2 1443   0.991   4.494   3.101 -0.5081  0.2405 -0.1928
  463SOL     OW 1444   0.918   4.175   3.016  0.2375 -0.4929  0.2393
  463SOL    HW1 1445   0.973   4.157   2.941  3.0416  0.2275  1.9865
  463SOL    HW2 1446   0.843   4.223   2.980 -0.0732 -2.7277 -2.4170
  464SOL     OW 1447   3.631   3.051   1.914  0.0232  0.5332 -0.8722
  464SOL    HW1 1448   3.543   3.071   1.945  0.1779  0.1922 -0.1728
  464SOL    HW2 1449   3.661   3.131   1.872 -0.5483  0.7134 -0.9375
  465SOL     OW 1450   1.363   4.085   3.542  0.0285  0.3479 -0.5063
  465SOL    HW1 1451   1.297   4.110   3.477 -0.7152  1.4505  0.6083
  465SOL    HW2 1452   1.446   4.095   3.496 -0.4524  1.4859 -1.1928
  466SOL     OW 1453   3.450   2.669   2.562  0.1943  0.9667 -0.5036
  466SOL    HW1 1454   3.516   2.739   2.566  1.2306 -0.0412  2.2256
  466SOL    HW2 1455   3.428   2.651   2.653 -1.0930 -1.3044 -1.1809
  467SOL     OW 1456   1.907   3.335   3.293 -0.1768 -0.0664 -0.4187
  467SOL    HW1 1457   1.917   3.392   3.216  0.5081  0.0341 -0.2615
  467SOL    HW2 1458   1.927   3.392   3.367  0.4156 -0.4833 -0.2522
  468SOL     OW 1459   3.738   2.652   2.821 -0.3380 -0.4646 -0.1422
  468SOL    HW1 1460   3.833   2.645   2.822 -0.1187 -0.3551 -4.2076
  468SOL    HW2 1461   3.708   2.566   2.793 -1.5498 -0.6163  1.4538
  469SOL     OW 1462   0.986   3.580   3.654 -0.0846  0.5122  0.0104
  469SOL    HW1 1463   0.936   3.623   3.584  0.2173  0.4428 -0.2531
  469SOL    HW2 1464   0.940   3.498   3.670 -0.0886  0.4741 -0.1924
  470SOL     OW 1465   4.318   1.412   0.121 -0.2707  0.9856  0.2768
  470SOL    HW1 1466   4.244   1.356   0.145 -0.1840  1.1975  1.0806
  470SOL    HW2 1467   4.388   1.384   0.180  0.2827  0.8183 -0.4443
  471SOL     OW 1468   3.988   3.600   2.380  0.0795 -0.2101  0.0637
  471SOL    HW1 1469   4.041   3.579   2.457 -0.1386 -0.0313  0.2618
  471SOL    HW2 1470   3.993   3.695   2.373 -1.1870 -0.0713  0.7864
  472SOL     OW 1471   1.474   3.816   0.178 -0.2793 -0.3109 -0.2650
  472SOL    HW1 1472   1.388   3.835   0.140 -0.0371 -1.1103 -1.2682
  472SOL    HW2 1473   1.535   3.872   0.129 -0.3350  1.1230  1.2269
  473SOL     OW 1474   1.554   0.388   2.057 -0.5944 -0.2208 -0.4353
  473SOL    HW1 1475   1.543   0.386   2.152 -1.6896  0.6366 -0.5241
  473SOL    HW2 1476   1.608   0.312   2.037  0.7489  0.3019  1.0027
  474SOL     OW 1477   3.789   2.575   3.971  0.3548 -0.1520  0.7284
  474SOL    HW1 1478   3.698   2.590   3.998  1.0070  1.0771  2.4649
  474SOL    HW2 1479   3.816   2.496   4.018 -0.5210 -2.1070 -1.8208
  475SOL     OW 1480   3.566   2.999   4.521 -0.5086  0.6595  0.0566
  475SOL    HW1 1481   3.531   2.931   4.463 -0.1068 -0.1125  0.6901
  475SOL    HW2 1482   3.627   2.952   4.578  0.1582  1.6504  0.1804
  476SOL     OW 1483   1.220   2.797   4.928  0.1076 -0.3979  0.5768
  476SOL    HW1 1484   1.137   2.844   4.929 -0.2676 -1.0340  1.6885
  476SOL    HW2 1485   1.260   2.819   4.844 -1.6302 -0.8424 -0.4118
  477SOL     OW 1486   2.637   3.710   3.540 -0.8947  0.0406  0.0813
  477SOL    HW1 1487   2.723   3.672   3.553  0.8509  3.6407  0.1813
  477SOL    HW2 1488   2.608   3.736   3.627 -1.0072  0.9299 -0.2137
  478SOL     OW 1489   3.838   0.777   3.621  0.5832 -0.7639 -0.6669
  478SOL    HW1 1490   3.776   0.833   3.668 -0.6819 -0.3099 -2.7341
  478SOL    HW2 1491   3.880   0.836   3.558  2.4394 -1.2776  0.0209
  479SOL     OW 1492   4.973   1.423   1.287  0.0378  0.8449 -0.6528
  479SOL    HW1 1493   4.936   1.502   1.246 -2.1195 -0.2199 -0.8730
  479SOL    HW2 1494   4.987   1.449   1.378 -2.3378  1.0355 -0.2694
  480SOL     OW 1495   1.019   3.293   0.774  0.1865  0.0172 -0.4670
  480SOL    HW1 1496   1.102   3.271   0.818  0.0889 -1.5889 -1.0341
  480SOL    HW2 1497   1.041   3.369   0.720  1.2188 -0.1939 -0.3766
  481SOL     OW 1498   4.176   4.433   3.196  0.5016 -0.1130  0.1046
  481SOL    HW1 1499   4.261   4.421   3.153  0.2173  0.2753 -0.5758
  481SOL    HW2 1500   4.123   4.480   3.132 -0.9112 -2.1778 -0.3471
  482SOL     OW 1501   0.775   4.431   1.179 -0.3332  0.5991 -0.1119
  482SOL    HW1 1502   0.788   4.350   1.228 -0.4646  0.4194 -0.3739
  482SOL    HW2 1503   0.835   4.494   1.221 -0.6282  0.5207  0.4421
  483SOL     OW 1504   0.545   3.686   1.321  0.0088 -0.0202 -0.4004
  483SOL    HW1 1505   0.518   3.669   1.412  0.0229 -0.3434 -0.4559
  483SOL    HW2 1506   0.469   3.661   1.269 -0.8912  2.3032 -0.3581
  484SOL     OW 1507   2.494   2.454   1.071 -0.3267  0.1630  0.7943
  484SOL    HW1 1508   2.480   2.473   0.978  0.6709  2.8816  1.1180
  484SOL    HW2 1509   2.586   2.475   1.086 -0.2414 -1.0727  2.2454
  485SOL     OW 1510   3.236   2.433   1.952  0.7014 -0.0910  0.5950
  485SOL    HW1 1511   3.149   2.461   1.982 -0.1715  0.6545 -2.3535
  485SOL    HW2 1512   3.293   2.507   1.972  0.7377 -0.5731  2.5195
  486SOL     OW 1513   3.954   2.676   3.343 -0.5021 -0.0953 -0.5807
  486SOL    HW1 1514   3.894   2.608   3.311 -0.4088 -0.2425 -0.4463
  486SOL    HW2 1515   4.034   2.628   3.366 -0.0115  0.2169 -1.5959
  487SOL     OW 1516   1.101   1.950   2.140  0.4660 -0.3158 -0.3098
  487SOL    HW1 1517   1.105   1.864   2.097  2.4168 -0.1072 -0.6253
  487SOL    HW2 1518   1.105   2.013   2.069  1.6631  0.0159  0.0174
  488SOL     OW 1519   1.821   2.092   1.002  0.1760 -0.4811 -0.4586
  488SOL    HW1 1520   1.856   2.182   1.005  2.2288 -1.1027 -2.7148
  488SOL    HW2 1521   1.876   2.044   1.065  0.5138 -0.5804 -0.8267
  489SOL     OW 1522   3.173   4.043   2.399  0.4222 -0.0081  0.3014
  489SOL    HW1 1523   3.231   3.983   2.444  1.6676  1.0947  0.2255
  489SOL    HW2 1524   3.121   3.988   2.341  1.5559 -1.0080  0.2014
  490SOL     OW 1525   3.230   3.585   1.061  0.0147  0.3437 -0.3581
  490SOL    HW1 1526   3.199   3.672   1.034  1.3956  1.1432  0.4858
  490SOL    HW2 1527   3.176   3.563   1.137 -0.2212  0.5314 -0.4685
  491SOL     OW 1528   3.983   1.584   2.584 -0.0225  0.1640 -0.6261
  491SOL    HW1 1529   3.923   1.542   2.645  1.1062 -1.9844 -0.8778
  491SOL    HW2 1530   4.019   1.658   2.633  1.0470 -1.6404  1.5063
  492SOL     OW 1531   3.835   0.386   2.266 -0.5205 -0.0593  0.3723
  492SOL    HW1 1532   3.782   0.311   2.291 -2.1432  0.0851 -2.2695
  492SOL    HW2 1533   3.915   0.378   2.318 -1.8184 -2.0227  2.1900
  493SOL     OW 1534   4.812   4.222   2.455  0.2081 -0.0412  0.2607
  493SOL    HW1 1535   4.867   4.153   2.418  1.0372  0.3676  0.6949
  493SOL    HW2 1536   4.770   4.181   2.531 -0.8366 -0.6275 -0.6020
  494SOL     OW 1537   0.638   3.163   0.156 -0.1319 -0.3575 -0.2058
  494SOL    HW1 1538   0.578   3.131   0.089  1.9471 -1.5757 -1.6136
  494SOL    HW2 1539   0.617   3.111   0.234 -2.3268  0.8109  0.0437
  495SOL     OW 1540   0.091   4.591   0.096  0.0273 -0.2471 -0.0709
  495SOL    HW1 1541   0.099   4.598   0.191 -0.6048 -1.4163  0.0870
  495SOL    HW2 1542   0.033   4.663   0.072  0.0496 -0.0477  0.4494
  496SOL     OW 1543   1.513   0.244   4.436 -0.1074 -0.0534 -0.2912
  496SOL    HW1 1544   1.580   0.304   4.403 -0.1234  0.6700  0.9590
  496SOL    HW2 1545   1.441   0.300   4.464 -1.3011 -0.8304 -1.6821
  497SOL     OW 1546   2.870   0.904   2.804  0.6321  0.2665  0.0941
  497SOL    HW1 1547   2.930   0.856   2.747  0.6207 -0.1478  0.4222
  497SOL    HW2 1548   2.799   0.841   2.822  0.1543  0.7162 -0.2123
  498SOL     OW 1549   1.030   0.404   0.285  0.0136 -0.1640  0.4342
  498SOL    HW1 1550   1.004   0.472   0.347 -0.9030  1.1419 -1.2984
  498SOL    HW2 1551   0.964   0.336   0.295  1.5375 -1.4377  2.9642
  499SOL     OW 1552   4.214   0.306   4.061 -0.1318  0.4728  0.5873
  499SOL    HW1 1553   4.278   0.254   4.110 -0.9749 -0.8487  0.3218
  499SOL    HW2 1554   4.161   0.242   4.015 -0.4021  1.6365 -0.7800
  500SOL     OW 1555   1.907   1.673   0.266  0.5433  0.0836  0.5159
  500SOL    HW1 1556   1.934   1.584   0.286 -0.7247 -0.5495 -0.4522
  500SOL    HW2 1557   1.813   1.674   0.283  0.8508  1.8255  2.4966
  501SOL     OW 1558   0.891   2.424   2.008  0.1881  0.3192  0.3921
  501SOL    HW1 1559   0.910   2.427   1.914  0.3828 -0.9338  0.3816
  501SOL    HW2 1560   0.835   2.500   2.023 -0.8449 -0.1392 -0.9598
  502SOL     OW 1561   3.202   1.417   1.712 -0.3219 -0.0251  0.3561
  502SOL    HW1 1562   3.212   1.468   1.632 -1.2720 -0.0151  0.2291
  502SOL    HW2 1563   3.284   1.369   1.721  0.6677  1.6258  0.5641
  503SOL     OW 1564   1.424   3.859   3.700  0.1709  0.3159  0.0766
  503SOL    HW1 1565   1.462   3.797   3.638  1.3444  0.6821  0.4185
  503SOL    HW2 1566   1.397   3.933   3.646 -0.9076 -0.3170 -0.2841
  504SOL     OW 1567   2.023   3.179   1.857 -0.4615 -0.2791 -0.5597
  504SOL    HW1 1568   2.038   3.273   1.865  2.7177 -0.6413 -0.9285
  504SOL    HW2 1569   2.108   3.139   1.877 -1.0919 -2.9576 -2.5959
  505SOL     OW 1570   2.061   3.897   0.740 -0.4970  0.8694 -0.3255
  505SOL    HW1 1571   2.062   3.877   0.833  1.8470 -0.9730 -0.6513
  505SOL    HW2 1572   1.972   3.877   0.712 -0.5068 -1.2819  1.0219
  506SOL     OW 1573   0.888   2.726   3.456 -0.4143 -0.5343 -0.1618
  506SOL    HW1 1574   0.800   2.741   3.423 -0.4777 -0.6376 -0.0388
  506SOL    HW2 1575   0.878   2.720   3.551 -0.4707 -1.9482 -0.2441
  507SOL     OW 1576   2.631   4.800   0.460 -0.0718  0.3785 -0.4551
  507SOL    HW1 1577   2.564   4.740   0.492  0.1778  0.5363  0.3920
  507SOL    HW2 1578   2.671   4.754   0.386  0.7003 -0.8821  0.7024
  508SOL     OW 1579   2.681   0.928   0.040 -0.6615 -0.0387  0.1177
  508SOL    HW1 1580   2.678   1.013   0.085 -3.3489 -1.0874  2.2110
  508SOL    HW2 1581   2.702   0.866   0.109 -1.5677 -1.3674 -0.7618
  509SOL     OW 1582   0.464   1.501   4.439 -0.4226 -0.0834  0.2584
  509SOL    HW1 1583   0.410   1.485   4.361  0.6827 -0.4962 -0.4367
  509SOL    HW2 1584   0.542   1.546   4.405 -0.7900  1.5068  1.3920
  510SOL     OW 1585   4.073   4.402   4.097  0.2434 -0.0943  0.5611
  510SOL    HW1 1586   4.082   4.497   4.092 -1.0407  0.0901  1.2344
  510SOL    HW2 1587   4.118   4.368   4.020  1.2057  1.0263  0.6226
  511SOL     OW 1588   3.607   2.628   1.524 -0.4365  0.4911 -0.4735
  511SOL    HW1 1589   3.552   2.704   1.501  1.2120  1.6764 -0.7031
  511SOL    HW2 1590   3.564   2.590   1.600 -1.3287  1.6523 -0.3600
  512SOL     OW 1591   4.389   1.574   1.134 -0.3955  0.0575 -0.3094
  512SOL    HW1 1592   4.325   1.601   1.200 -0.0146 -0.8124  0.4443
  512SOL    HW2 1593   4.337   1.538   1.062 -0.7878  0.1870 -0.0926
  513SOL     OW 1594   0.399   4.826   4.766  0.5884 -0.1219 -0.0049
  513SOL    HW1 1595   0.464   4.794   4.703  1.1548 -0.5221  0.7634
  513SOL    HW2 1596   0.316   4.791   4.734  0.8033  0.0504 -0.7712
  514SOL     OW 1597   4.689   4.657   3.566 -0.7621 -0.2862  0.0945
  514SOL    HW1 1598   4.778   4.655   3.529 -0.6222  1.3815  0.2727
  514SOL    HW2 1599   4.699   4.619   3.653  0.4383  2.4917  1.2910
  515SOL     OW 1600   0.372   1.732   0.203 -0.1711 -0.5453  0.3920
  515SOL    HW1 1601   0.328   1.648   0.189 -0.6879 -0.1204 -0.5699
  515SOL    HW2 1602   0.330   1.792   0.142 -0.2342  0.5757  1.4993
  516SOL     OW 1603   3.666   1.336   1.679  0.0934 -0.0335 -0.3708
  516SOL    HW1 1604   3.598   1.403   1.686  0.5201  0.2441  1.7159
  516SOL    HW2 1605   3.748   1.385   1.684  0.4531 -0.5176 -1.2908
  517SOL     OW 1606   1.282   3.713   2.923  0.3899  0.2999  0.1296
  517SOL    HW1 1607   1.234   3.690   3.003 -0.5866  1.7102 -0.0199
  517SOL    HW2 1608   1.268   3.807   2.912  0.0525  0.0548 -2.0003
  518SOL     OW 1609   3.421   0.058   2.201  0.1064  0.0528 -0.3951
  518SOL    HW1 1610   3.481  -0.017   2.203  1.8507  1.3942  1.2233
  518SOL    HW2 1611   3.364   0.041   2.126  3.1209 -0.8791 -2.7070
  519SOL     OW 1612   2.302   3.055   3.539 -0.0472 -0.1354 -0.2138
  519SOL    HW1 1613   2.389   3.083   3.567 -0.7593  0.4032  1.6132
  519SOL    HW2 1614   2.259   3.025   3.620 -1.6513 -0.1546 -1.0262
  520SOL     OW 1615   1.814   2.603   4.791 -0.2168 -0.1403  0.2880
  520SOL    HW1 1616   1.882   2.536   4.786 -0.4778 -0.3479 -0.5375
  520SOL    HW2 1617   1.858   2.684   4.765 -0.3720 -0.3448 -0.6354
  521SOL     OW 1618   2.061   4.276   3.958  0.4137 -0.6184 -0.7184
  521SOL    HW1 1619   2.014   4.280   4.042  2.4732  0.2037  0.4795
  521SOL    HW2 1620   2.111   4.194   3.963  1.2279 -0.1311 -0.7359
  522SOL     OW 1621   4.343   3.885   4.039 -0.3372 -0.3960  0.5359
  522SOL    HW1 1622   4.254   3.899   4.073  0.0870  0.3858  1.3563
  522SOL    HW2 1623   4.362   3.793   4.059 -1.0646 -0.6648  0.0651
  523SOL     OW 1624   4.079   3.952   3.413  0.5222 -0.2769  0.4565
  523SOL    HW1 1625   3.985   3.968   3.399  1.0137  0.7906 -2.3887
  523SOL    HW2 1626   4.112   4.035   3.448  0.7380  0.1417 -0.6994
  524SOL     OW 1627   2.349   2.039   1.292 -0.1877 -0.1636  0.1408
  524SOL    HW1 1628   2.338   2.092   1.371  0.1558  0.2079 -0.0555
  524SOL    HW2 1629   2.392   1.959   1.322 -1.6022 -0.7744  0.6008
  525SOL     OW 1630   3.700   1.556   0.327 -0.2836  0.7555 -0.7583
  525SOL    HW1 1631   3.697   1.464   0.299  1.4970  0.5471 -0.3711
  525SOL    HW2 1632   3.727   1.603   0.248 -0.4104  0.8451 -0.7475
  526SOL     OW 1633   1.361   3.671   1.329  0.1599 -0.2124 -0.1968
  526SOL    HW1 1634   1.340   3.622   1.249  0.8282 -0.2718 -0.3464
  526SOL    HW2 1635   1.294   3.644   1.392  0.4141 -1.2055 -0.3257
  527SOL     OW 1636   3.562   3.462   3.971  0.1462 -0.4602  0.4577
  527SOL    HW1 1637   3.599   3.547   3.995 -0.1766 -0.2667  0.2847
  527SOL    HW2 1638   3.625   3.398   4.004  0.5087 -0.1462  0.3779
  528SOL     OW 1639   2.698   4.554   3.372 -1.0556 -0.3869 -0.2042
  528SOL    HW1 1640   2.787   4.582   3.348 -1.6313  1.6687 -0.0855
  528SOL    HW2 1641   2.711   4.494   3.445  0.2664 -0.8103 -0.7392
  529SOL     OW 1642   0.296   2.504   0.876  0.6078  0.4963  0.1771
  529SOL    HW1 1643   0.272   2.440   0.942 -2.7943  0.7938 -0.5643
  529SOL    HW2 1644   0.330   2.453   0.803 -1.3427 -0.4922 -0.1059
  530SOL     OW 1645   2.965   4.688   4.314 -0.3852 -0.0419 -0.3663
  530SOL    HW1 1646   2.882   4.700   4.360  0.1095  0.6400  0.3684
  530SOL    HW2 1647   3.026   4.749   4.356  1.0844 -2.0372  0.5767
  531SOL     OW 1648   2.963   4.587   3.305 -0.0707  0.1001  0.1309
  531SOL    HW1 1649   3.006   4.507   3.335 -1.8677 -1.5682 -1.4817
  531SOL    HW2 1650   3.031   4.634   3.256  0.3581 -1.7725 -1.1629
  532SOL     OW 1651   0.116   0.538   2.503 -0.5678  0.1249  0.0580
  532SOL    HW1 1652   0.111   0.454   2.457 -0.2646  0.6670 -0.9942
  532SOL    HW2 1653   0.141   0.601   2.435 -2.4748  1.3787  0.4617
  533SOL     OW 1654   0.910   2.933   1.843 -0.1278 -0.3184 -0.2562
  533SOL    HW1 1655   0.909   2.987   1.923  0.3297 -0.7010  0.0108
  533SOL    HW2 1656   0.999   2.941   1.810 -0.5729  0.6658 -1.3155
  534SOL     OW 1657   1.046   0.719   0.692 -0.0588 -0.4514 -0.3260
  534SOL    HW1 1658   1.018   0.679   0.775  3.0635  1.6232  1.9453
  534SOL    HW2 1659   0.984   0.790   0.678 -1.2083 -1.4310 -0.3762
  535SOL     OW 1660   0.192   4.404   2.738 -0.2912  0.2049 -0.5234
  535SOL    HW1 1661   0.152   4.486   2.765  1.6618  0.5538  1.6236
  535SOL    HW2 1662   0.269   4.430   2.688  1.3417 -0.1805  1.6690
  536SOL     OW 1663   0.021   4.044   0.688 -0.1846 -0.7448 -0.0477
  536SOL    HW1 1664   0.061   4.103   0.752 -0.3589 -0.7816  0.0963
  536SOL    HW2 1665  -0.073   4.063   0.693 -0.1738 -0.5536 -0.4905
  537SOL     OW 1666   1.468   3.987   3.248 -0.3687 -0.5545 -0.2354
  537SOL    HW1 1667   1.500   3.917   3.306  2.4190 -1.2893 -2.4450
  537SOL    HW2 1668   1.502   4.068   3.286  1.0918 -0.9877 -0.5812
  538SOL     OW 1669   2.281   3.997   3.802 -0.1201  0.1513 -0.4580
  538SOL    HW1 1670   2.203   3.984   3.855 -0.2287  1.4334 -0.2921
  538SOL    HW2 1671   2.248   4.006   3.712 -0.0619 -0.3732 -0.5390
  539SOL     OW 1672   4.073   3.661   2.933  0.8671 -0.2756  0.8915
  539SOL    HW1 1673   4.095   3.745   2.971 -0.6907  0.6745 -0.1919
  539SOL    HW2 1674   3.981   3.646   2.957  0.9894 -1.4590  0.7068
  540SOL     OW 1675   2.845   2.578   0.522  0.0759  0.1784 -0.3876
  540SOL    HW1 1676   2.927   2.613   0.488  0.8406  0.3095  1.4745
  540SOL    HW2 1677   2.778   2.605   0.459  0.7722  3.9911  0.2906
  541SOL     OW 1678   2.396   4.654   1.894  0.4667 -0.0782 -0.5413
  541SOL    HW1 1679   2.306   4.640   1.924  0.0848  2.2781 -0.4235
  541SOL    HW2 1680   2.391   4.646   1.798  0.3456 -0.8412 -0.4820
  542SOL     OW 1681   1.463   2.302   1.615  0.6585  0.2517 -0.1480
  542SOL    HW1 1682   1.393   2.350   1.660 -0.6566 -1.6375 -0.0790
  542SOL    HW2 1683   1.539   2.312   1.672  0.5589  2.4771 -0.2925
  543SOL     OW 1684   4.869   2.088   0.776 -0.0397 -0.1609  0.2384
  543SOL    HW1 1685   4.801   2.111   0.712  1.5131  0.2353 -1.3438
  543SOL    HW2 1686   4.902   2.173   0.806 -0.0137 -0.3515  0.7529
  544SOL     OW 1687   2.658   4.373   1.394  0.1729  0.3806  0.2286
  544SOL    HW1 1688   2.738   4.426   1.392 -0.0171  0.6454 -1.7518
  544SOL    HW2 1689   2.653   4.342   1.484  0.6723  3.1738  1.3411
  545SOL     OW 1690   4.937   2.351   0.811 -0.1341  0.5941 -0.0422
  545SOL    HW1 1691   4.950   2.438   0.773 -1.6505  1.3854  1.1466
  545SOL    HW2 1692   4.976   2.356   0.898 -0.0380 -0.0027 -0.0414
  546SOL     OW 1693   2.382   0.329   2.649 -0.2618 -0.1325 -0.6752
  546SOL    HW1 1694   2.340   0.406   2.611  0.4860  0.9233  0.5297
  546SOL    HW2 1695   2.434   0.364   2.722 -1.1812 -1.9661  0.9562
  547SOL     OW 1696   1.324   2.195   2.342  0.0343 -0.2701  0.0538
  547SOL    HW1 1697   1.343   2.105   2.369 -0.8758 -0.0489  1.5459
  547SOL    HW2 1698   1.229   2.203   2.354  0.1085  0.8849 -0.0732
  548SOL     OW 1699   2.845   2.395   4.542  0.5307 -0.2740 -0.1598
  548SOL    HW1 1700   2.804   2.364   4.462  0.1920 -2.1170  0.6823
  548SOL    HW2 1701   2.864   2.487   4.525 -1.5699 -0.0316 -1.5263
  549SOL     OW 1702   3.157   2.845   0.298 -0.2205 -0.0630  0.1857
  549SOL    HW1 1703   3.131   2.811   0.212 -0.9529 -0.5798  0.5945
  549SOL    HW2 1704   3.253   2.840   0.298 -0.0680  1.6557 -1.2748
  550SOL     OW 1705   2.978   1.659   4.931  0.0257 -0.0785 -0.6356
  550SOL    HW1 1706   2.965   1.753   4.922 -1.5543 -0.3666 -1.8217
  550SOL    HW2 1707   2.972   1.625   4.842 -1.7864 -1.5329 -0.0315
  551SOL     OW 1708   1.839   1.713   4.400 -0.4563  0.0141  0.4309
  551SOL    HW1 1709   1.770   1.738   4.461 -1.6169  0.0558 -0.8347
  551SOL    HW2 1710   1.889   1.646   4.446 -1.4198 -0.1002  1.3443
  552SOL     OW 1711   0.924   1.348   1.222  0.1244 -0.0037  0.2221
  552SOL    HW1 1712   0.847   1.389   1.262  0.6606  1.0443  0.2021
  552SOL    HW2 1713   0.889   1.271   1.177 -0.9455  0.6081 -0.0223
  553SOL     OW 1714   4.436   3.482   4.803  0.4844  0.4912 -0.9979
  553SOL    HW1 1715   4.472   3.465   4.890  0.9780 -1.4182 -1.5253
  553SOL    HW2 1716   4.343   3.501   4.820  0.6111  0.3260 -0.0294
  554SOL     OW 1717   3.513   1.755   1.452 -0.2466 -0.4635 -0.4316
  554SOL    HW1 1718   3.608   1.748   1.455 -0.2834 -0.6875  0.6494
  554SOL    HW2 1719   3.487   1.766   1.544 -1.2799 -0.7376 -0.6791
  555SOL     OW 1720   3.292   0.520   0.861 -0.2673  0.0015 -0.0796
  555SOL    HW1 1721   3.380   0.556   0.870  0.1871 -1.3781  1.5084
  555SOL    HW2 1722   3.257   0.561   0.781  1.9500  0.2332 -0.9914
  556SOL     OW 1723   2.007   2.659   3.651  0.3745 -0.2210  0.0123
  556SOL    HW1 1724   2.064   2.708   3.710  1.6636 -1.4140 -0.1890
  556SOL    HW2 1725   2.056   2.580   3.631  0.0044  0.1464 -2.6883
  557SOL     OW 1726   3.191   1.902   2.420  0.1010  0.2518  0.1916
  557SOL    HW1 1727   3.135   1.972   2.454 -1.3953 -0.7366 -0.1282
  557SOL    HW2 1728   3.158   1.885   2.332  0.6997 -0.5852  0.1130
  558SOL     OW 1729   4.591   1.412   0.971 -0.3345 -0.0191 -0.5070
  558SOL    HW1 1730   4.498   1.434   0.981 -0.0500  1.0691 -0.0324
  558SOL    HW2 1731   4.635   1.497   0.971  0.4646 -0.3392 -3.2819
  559SOL     OW 1732   0.881   3.741   0.877  0.0126  0.8326 -0.3293
  559SOL    HW1 1733   0.796   3.770   0.845  0.1669  0.7379 -0.8335
  559SOL    HW2 1734   0.862   3.698   0.960 -0.5796 -0.1952 -0.9685
  560SOL     OW 1735   0.640   2.761   3.677  0.5187 -0.4305 -0.2233
  560SOL    HW1 1736   0.548   2.751   3.700  0.6119 -0.5230  0.1136
  560SOL    HW2 1737   0.687   2.714   3.745  0.8133 -0.4431 -0.4331
  561SOL     OW 1738   2.920   2.131   2.653  0.4206 -0.5482  0.1778
  561SOL    HW1 1739   2.932   2.114   2.560 -2.1308  0.1667 -0.3757
  561SOL    HW2 1740   2.970   2.210   2.670  2.1982 -1.5477 -0.1647
  562SOL     OW 1741   1.404   1.427   0.075  0.1086  0.4280  0.4884
  562SOL    HW1 1742   1.393   1.402   0.167 -1.1361  0.3205  0.3209
  562SOL    HW2 1743   1.368   1.353   0.025 -1.3580  1.4613 -0.0413
  563SOL     OW 1744   4.099   3.689   2.000  0.1918 -0.3363 -0.0073
  563SOL    HW1 1745   4.153   3.689   1.921  3.5699 -0.7195  2.0865
  563SOL    HW2 1746   4.075   3.781   2.013  2.1790  0.2339  0.0291
  564SOL     OW 1747   4.874   3.990   2.316  0.4372 -0.2166 -0.4532
  564SOL    HW1 1748   4.927   3.941   2.253 -0.4320 -1.2027 -0.4523
  564SOL    HW2 1749   4.791   4.006   2.271  0.6027  1.0459 -0.3492
  565SOL     OW 1750   3.574   0.863   2.437  0.2522 -0.5057  0.6390
  565SOL    HW1 1751   3.633   0.799   2.476  1.7845 -0.7631 -1.9378
  565SOL    HW2 1752   3.488   0.821   2.440  0.7240 -1.4638  1.5580
  566SOL     OW 1753   4.697   3.887   1.579 -0.5400  0.3030  0.8530
  566SOL    HW1 1754   4.662   3.941   1.508 -0.0742 -1.0758 -0.4674
  566SOL    HW2 1755   4.635   3.815   1.588 -0.4862  0.3570  1.7212
  567SOL     OW 1756   4.380   1.311   2.610  0.3450 -0.4176 -0.1301
  567SOL    HW1 1757   4.351   1.309   2.519 -1.0509 -0.9977  0.3115
  567SOL    HW2 1758   4.325   1.377   2.652  0.7315 -0.4055  0.3774
  568SOL     OW 1759   0.591   0.573   4.045  0.6072 -0.5804  0.0336
  568SOL    HW1 1760   0.588   0.666   4.066  1.6663 -0.5843  0.2085
  568SOL    HW2 1761   0.654   0.536   4.106  0.8215 -1.2683 -0.5965
  569SOL     OW 1762   1.839   3.225   2.715 -0.2539  0.4333  0.6890
  569SOL    HW1 1763   1.838   3.212   2.810 -1.5169 -0.6162  0.5587
  569SOL    HW2 1764   1.830   3.136   2.679 -1.4316  0.9712 -0.3890
  570SOL     OW 1765   2.403   0.190   2.279  0.1150  0.6673 -0.3163
  570SOL    HW1 1766   2.325   0.240   2.302  0.1837  1.5139 -1.8279
  570SOL    HW2 1767   2.441   0.236   2.204  2.7577  0.9898  1.0674
  571SOL     OW 1768   2.464   2.223   0.756 -0.6369 -0.2452 -0.5827
  571SOL    HW1 1769   2.495   2.313   0.762 -0.0673 -0.3830 -1.3591
  571SOL    HW2 1770   2.403   2.214   0.830  0.1321  0.4377  0.1544
  572SOL     OW 1771   4.926   0.014   2.776 -0.2209  0.5155 -0.2357
  572SOL    HW1 1772   4.934  -0.023   2.688  1.1026 -0.0116  0.0826
  572SOL    HW2 1773   4.832   0.022   2.790 -0.4544  1.0066 -1.8631
  573SOL     OW 1774   4.898   0.281   0.213 -0.3436 -0.3200 -0.5628
  573SOL    HW1 1775   4.807   0.302   0.233  0.1282  1.6926 -0.3258
  573SOL    HW2 1776   4.934   0.248   0.295 -0.7377 -0.6808 -0.5329
  574SOL     OW 1777   4.929   4.799   0.787  0.4596 -0.0114  0.3203
  574SOL    HW1 1778   4.968   4.716   0.814 -1.3116 -0.1889  2.6076
  574SOL    HW2 1779   4.968   4.865   0.844  1.6450  0.7604 -1.2959
  575SOL     OW 1780   4.482   4.658   2.344 -0.0085  0.2880  0.0802
  575SOL    HW1 1781   4.445   4.573   2.367  1.9023 -1.0412 -1.4863
  575SOL    HW2 1782   4.407   4.710   2.317 -1.0785 -1.2932 -0.1139
  576SOL     OW 1783   2.381   0.243   3.301 -0.0205  1.1845 -0.2308
  576SOL    HW1 1784   2.471   0.226   3.272  0.1741  2.2423 -0.2795
  576SOL    HW2 1785   2.391   0.275   3.391 -0.5415 -0.9750  0.6608
  577SOL     OW 1786   4.816   0.443   1.796 -0.4790 -0.0033 -0.5405
  577SOL    HW1 1787   4.866   0.522   1.777 -0.6956 -0.0427 -1.3015
  577SOL    HW2 1788   4.730   0.475   1.822 -1.2064  0.0036 -2.7329
  578SOL     OW 1789   2.052   2.960   1.335  0.6360 -0.0180 -0.0668
  578SOL    HW1 1790   2.105   2.917   1.402 -0.2497  0.4575  0.9550
  578SOL    HW2 1791   2.063   2.905   1.257  0.4865 -1.4263  0.8671
  579SOL     OW 1792   2.348   2.191   1.520 -0.1851  0.0538 -0.1263
  579SOL    HW1 1793   2.265   2.212   1.563 -0.4493 -1.5159  0.2076
  579SOL    HW2 1794   2.374   2.272   1.476 -1.9938  0.5177 -0.4243
  580SOL     OW 1795   4.279   4.766   4.828  0.2975  0.4094 -0.6167
  580SOL    HW1 1796   4.325   4.831   4.774  1.3861 -0.8705 -1.2924
  580SOL    HW2 1797   4.188   4.772   4.800  0.5477  1.0074 -1.3338
  581SOL     OW 1798   4.337   0.688   1.751 -0.4187  0.2498 -0.0832
  581SOL    HW1 1799   4.408   0.623   1.748 -0.1495  0.5098 -3.3312
  581SOL    HW2 1800   4.372   0.758   1.805  0.8191 -0.6680  0.3688
  582SOL     OW 1801   4.903   0.094   4.692  0.0819 -0.2622  0.8229
  582SOL    HW1 1802   4.950   0.166   4.734 -0.2725  0.2596  0.3513
  582SOL    HW2 1803   4.828   0.136   4.651 -1.2800 -1.2015  2.2641
  583SOL     OW 1804   1.825   3.366   1.626  0.1902 -0.3207 -0.7248
  583SOL    HW1 1805   1.870   3.291   1.588 -1.1000 -0.9635 -1.0327
  583SOL    HW2 1806   1.895   3.421   1.661  1.1812 -1.4166 -0.9400
  584SOL     OW 1807   3.079   1.738   1.466 -0.1905  0.2962  0.6898
  584SOL    HW1 1808   3.143   1.676   1.430 -1.3494 -0.3266 -0.3817
  584SOL    HW2 1809   3.110   1.824   1.437  0.8466  0.1364  1.2769
  585SOL     OW 1810   2.402   1.925   1.605  0.1544 -0.3215 -0.2894
  585SOL    HW1 1811   2.490   1.920   1.643 -0.0851  0.1444  0.3457
  585SOL    HW2 1812   2.387   2.019   1.593 -0.8525 -0.2930  1.0395
  586SOL     OW 1813   4.841   2.971   3.646  0.6176 -0.8099 -0.5333
  586SOL    HW1 1814   4.775   2.905   3.666 -0.8502 -0.1218 -2.6747
  586SOL    HW2 1815   4.818   3.001   3.558  1.8891  1.7435 -0.0948
  587SOL     OW 1816   4.606   2.198   2.030 -0.4578 -0.2035 -0.1865
  587SOL    HW1 1817   4.661   2.119   2.036 -0.4537 -0.1971 -0.1422
  587SOL    HW2 1818   4.534   2.172   1.973  0.4355  0.2675 -1.5862
  588SOL     OW 1819   1.183   2.098   0.823  0.3702 -0.5748 -0.3875
  588SOL    HW1 1820   1.089   2.093   0.806 -0.0137 -1.2046  1.6145
  588SOL    HW2 1821   1.204   2.191   0.814 -0.6903 -0.2559  0.2162
  589SOL     OW 1822   3.928   1.540   2.120 -0.0996  0.5905 -0.0602
  589SOL    HW1 1823   4.020   1.557   2.138 -0.3007  0.4132  1.2231
  589SOL    HW2 1824   3.899   1.485   2.193 -0.8313 -0.6946 -1.2757
  590SOL     OW 1825   0.994   4.568   0.724  0.3043 -0.4064 -0.6468
  590SOL    HW1 1826   0.941   4.495   0.756 -0.8994  0.3617 -0.8454
  590SOL    HW2 1827   0.966   4.580   0.633  0.1903  0.5679 -0.4873
  591SOL     OW 1828   2.160   0.675   0.843  0.1515  0.5001  0.6111
  591SOL    HW1 1829   2.219   0.642   0.776 -1.0171 -1.2119  0.3432
  591SOL    HW2 1830   2.123   0.755   0.806 -0.3944 -0.3636 -0.7855
  592SOL     OW 1831   4.472   1.622   2.599  0.3312  0.4007 -0.0018
  592SOL    HW1 1832   4.518   1.539   2.610  1.1575  0.8596  0.0918
  592SOL    HW2 1833   4.390   1.611   2.647 -1.1831 -1.5769 -2.8154
  593SOL     OW 1834   0.507   1.725   3.909  0.2751  0.6804 -0.1806
  593SOL    HW1 1835   0.495   1.646   3.856  1.8153 -0.0191  0.4418
  593SOL    HW2 1836   0.482   1.797   3.851  0.1850 -0.1688 -1.2324
  594SOL     OW 1837   0.062   0.098   1.412  0.0863  0.1270 -0.0098
  594SOL    HW1 1838   0.026   0.171   1.462 -0.5928  0.0954 -0.4388
  594SOL    HW2 1839  -0.013   0.041   1.394  0.7002 -1.0031  0.8352
  595SOL     OW 1840   1.819   3.667   3.786  1.2221  0.0093  0.3034
  595SOL    HW1 1841   1.844   3.754   3.815  0.3596  0.3080  0.1802
  595SOL    HW2 1842   1.900   3.617   3.786  1.5917  0.5974  1.1232
  596SOL     OW 1843   0.886   0.388   3.259 -0.1529 -0.2164  0.4751
  596SOL    HW1 1844   0.853   0.445   3.190  0.5110  0.5092  0.7424
  596SOL    HW2 1845   0.882   0.300   3.222 -3.3034 -0.3290  0.8410
  597SOL     OW 1846   1.512   4.718   1.495  0.5980 -0.0752  0.7453
  597SOL    HW1 1847   1.544   4.794   1.446  0.3095  0.0683  0.7778
  597SOL    HW2 1848   1.424   4.743   1.523 -0.5764 -1.3977 -1.4778
  598SOL     OW 1849   3.143   3.322   3.233 -0.1546  0.0894 -0.0847
  598SOL    HW1 1850   3.121   3.335   3.141  0.2230  0.6375 -0.0997
  598SOL    HW2 1851   3.210   3.254   3.233 -1.7445 -1.5520 -0.0453
  599SOL     OW 1852   2.508   1.447   0.652  0.2880  0.2919 -0.1050
  599SOL    HW1 1853   2.590   1.409   0.620  0.0447 -0.9828  0.7065
  599SOL    HW2 1854   2.486   1.515   0.588  2.6157  1.5494  0.3001
  600SOL     OW 1855   2.295   3.345   2.350  0.2018 -0.3913  0.3066
  600SOL    HW1 1856   2.337   3.309   2.429  0.7548  2.2230  1.3000
  600SOL    HW2 1857   2.210   3.377   2.381  0.5333  0.8957 -0.0861
  601SOL     OW 1858   4.486   3.329   2.068  0.2803 -0.6869  0.0173
  601SOL    HW1 1859   4.522   3.317   2.156  0.0018  1.0132  0.3958
  601SOL    HW2 1860   4.506   3.420   2.047  0.9108 -1.2413 -1.9539
  602SOL     OW 1861   1.275   4.076   2.579  0.0922 -0.2078 -0.4787
  602SOL    HW1 1862   1.328   4.000   2.552 -1.1800 -0.5299 -2.2139
  602SOL    HW2 1863   1.299   4.145   2.517 -1.7289 -0.4636 -1.5166
  603SOL     OW 1864   2.533   3.679   4.006  0.2506 -0.2746  0.3809
  603SOL    HW1 1865   2.444   3.713   4.017  0.4423  0.0575  0.9646
  603SOL    HW2 1866   2.562   3.714   3.922 -1.2075 -2.7545 -1.2595
  604SOL     OW 1867   1.820   3.931   4.133 -0.2337 -0.4320  0.2885
  604SOL    HW1 1868   1.746   3.989   4.155 -0.0013 -0.1745  0.3962
  604SOL    HW2 1869   1.812   3.858   4.195 -0.3837 -0.3892  0.3201
  605SOL     OW 1870   3.270   1.900   2.910 -0.2156  0.0060  0.2523
  605SOL    HW1 1871   3.176   1.907   2.891 -0.6565 -1.1296  1.8294
  605SOL    HW2 1872   3.295   1.814   2.875  0.4140  0.5958 -0.7828
  606SOL     OW 1873   3.866   1.400   1.093  0.6972  0.1332 -0.5615
  606SOL    HW1 1874   3.958   1.391   1.117  1.3123 -0.4769 -2.8490
  606SOL    HW2 1875   3.867   1.456   1.015 -0.7455 -0.7402 -1.2640
  607SOL     OW 1876   2.280   4.927   3.955  0.8713  0.2235  1.0941
  607SOL    HW1 1877   2.204   4.883   3.916  1.2247  1.5009 -1.1816
  607SOL    HW2 1878   2.345   4.857   3.966  0.9508 -0.1120 -1.1760
  608SOL     OW 1879   0.367   4.502   2.519  0.1508 -1.0561 -1.0194
  608SOL    HW1 1880   0.361   4.594   2.545 -0.9683 -1.2843 -0.3970
  608SOL    HW2 1881   0.385   4.505   2.425 -1.2020 -0.1651 -1.2836
  609SOL     OW 1882   4.298   4.103   3.835  0.1315  0.0233 -0.1023
  609SOL    HW1 1883   4.343   4.122   3.753 -0.2684 -1.0494 -0.5818
  609SOL    HW2 1884   4.365   4.117   3.903  1.5909 -2.6159 -0.8696
  610SOL     OW 1885   1.294   0.901   3.333  0.5955  0.2222 -0.2314
  610SOL    HW1 1886   1.379   0.860   3.346  0.6855  0.9837  1.8913
  610SOL    HW2 1887   1.303   0.988   3.371 -1.3455  0.0600  0.7280
  611SOL     OW 1888   1.999   3.522   0.747 -0.0202 -0.2077 -0.0113
  611SOL    HW1 1889   1.989   3.492   0.837  1.0290 -1.5566 -0.3049
  611SOL    HW2 1890   1.943   3.463   0.696 -0.3952  0.3680 -0.2748
  612SOL     OW 1891   4.212   2.283   4.885 -0.3687 -0.2343  0.1174
  612SOL    HW1 1892   4.162   2.267   4.805 -1.5996 -0.6961  0.9327
  612SOL    HW2 1893   4.212   2.378   4.895  0.1144 -0.1561 -0.6269
  613SOL     OW 1894   0.153   0.285   2.359  0.5837  0.3255  0.2823
  613SOL    HW1 1895   0.128   0.197   2.332  0.9430  0.7985 -1.6974
  613SOL    HW2 1896   0.240   0.274   2.396  0.2007 -0.2950  1.0362
  614SOL     OW 1897   2.649   0.362   0.675  0.4906 -0.2932 -0.4487
  614SOL    HW1 1898   2.584   0.406   0.621 -1.2814 -1.2855  0.7755
  614SOL    HW2 1899   2.651   0.272   0.642  0.5888 -0.4919  0.0872
  615SOL     OW 1900   4.167   3.253   0.800 -0.2626  0.5738  0.3199
  615SOL    HW1 1901   4.141   3.296   0.881  1.4964 -0.6351  1.5856
  615SOL    HW2 1902   4.215   3.320   0.751 -2.2016  1.6195 -0.2545
  616SOL     OW 1903   3.989   1.289   2.900 -0.6654  0.3754 -0.1700
  616SOL    HW1 1904   3.967   1.209   2.853 -0.3594  0.4957 -0.5246
  616SOL    HW2 1905   4.070   1.268   2.947  0.3042  0.9582 -1.5356
  617SOL     OW 1906   4.139   1.844   0.134  0.5188  0.7377 -0.1035
  617SOL    HW1 1907   4.104   1.893   0.208  0.1739 -0.1913  0.3566
  617SOL    HW2 1908   4.160   1.758   0.169  0.1314  0.2091 -1.1340
  618SOL     OW 1909   1.281   1.710   4.243  0.0594 -0.2368  0.3186
  618SOL    HW1 1910   1.303   1.782   4.185 -0.3550  1.4010  2.1152
  618SOL    HW2 1911   1.322   1.732   4.326 -0.1676 -2.0305  0.9662
  619SOL     OW 1912   4.131   4.565   2.454 -0.1405  0.7504 -0.0640
  619SOL    HW1 1913   4.203   4.505   2.433 -0.5739 -0.1791  0.9869
  619SOL    HW2 1914   4.174   4.645   2.483  0.4654  0.4621 -0.1454
  620SOL     OW 1915   1.865   4.067   4.738  0.1736  0.0157 -0.0800
  620SOL    HW1 1916   1.810   4.068   4.660  0.1908  1.2892 -0.0909
  620SOL    HW2 1917   1.819   4.122   4.801  0.1016 -1.0875  0.8687
  621SOL     OW 1918   2.922   1.868   4.089  0.2665  0.2564  0.2268
  621SOL    HW1 1919   2.900   1.781   4.055  1.8970 -1.4328  3.0368
  621SOL    HW2 1920   3.007   1.888   4.050  1.7190 -1.2800  2.3564
  622SOL     OW 1921   4.318   2.840   4.931  0.2576 -0.0351  0.5173
  622SOL    HW1 1922   4.373   2.808   4.860 -0.6832 -1.3751  0.3449
  622SOL    HW2 1923   4.373   2.836   5.009  0.0404 -2.6537  0.5970
  623SOL     OW 1924   2.824   4.010   2.891  0.3624 -0.2033 -0.2855
  623SOL    HW1 1925   2.788   4.036   2.975  0.0711  0.9512 -0.7383
  623SOL    HW2 1926   2.765   4.050   2.826  0.7677 -0.7811 -1.0315
  624SOL     OW 1927   3.087   2.864   0.762  0.0490  0.4394  0.1335
  624SOL    HW1 1928   3.092   2.951   0.721  2.1041  0.5987  0.5847
  624SOL    HW2 1929   3.108   2.881   0.854 -2.7092 -0.1582  0.9576
  625SOL     OW 1930   2.299   4.704   3.232 -0.6208  0.0267  0.1765
  625SOL    HW1 1931   2.225   4.670   3.181 -1.6621 -1.4692  2.4992
  625SOL    HW2 1932   2.288   4.799   3.229 -0.3688  0.0667 -2.6258
  626SOL     OW 1933   0.714   0.371   4.186  0.0127  0.3213 -0.0617
  626SOL    HW1 1934   0.686   0.281   4.169  1.3697  0.0760 -1.2105
  626SOL    HW2 1935   0.702   0.383   4.280  0.2962 -1.2310  0.1955
  627SOL     OW 1936   3.887   1.530   0.845 -0.5345 -0.0463  0.2135
  627SOL    HW1 1937   3.979   1.556   0.848 -0.0729 -1.5927  2.3405
  627SOL    HW2 1938   3.839   1.613   0.839  0.9492  0.7293 -2.5496
  628SOL     OW 1939   0.243   2.442   2.127 -0.4454  0.1025  0.4377
  628SOL    HW1 1940   0.290   2.444   2.044 -2.5306 -0.1947 -0.7997
  628SOL    HW2 1941   0.284   2.512   2.179  0.7069  0.4706 -0.9119
  629SOL     OW 1942   2.522   3.813   3.769  0.2959 -0.2993 -0.2400
  629SOL    HW1 1943   2.426   3.817   3.771  0.1472 -1.6596  3.3806
  629SOL    HW2 1944   2.549   3.902   3.792 -0.1981 -0.4045  0.8000
  630SOL     OW 1945   1.649   3.259   0.352  0.0817  0.5636 -0.2681
  630SOL    HW1 1946   1.564   3.264   0.308 -0.5646 -1.4683  0.6140
  630SOL    HW2 1947   1.659   3.343   0.397 -2.0516  0.4062  0.6141
  631SOL     OW 1948   4.754   0.646   3.837  0.5336 -0.3251 -0.0388
  631SOL    HW1 1949   4.776   0.627   3.928 -3.4899  1.7202  1.6014
  631SOL    HW2 1950   4.783   0.736   3.824  0.0054 -0.2062 -0.3968
  632SOL     OW 1951   0.592   1.548   3.271 -0.2003 -1.0681  0.2503
  632SOL    HW1 1952   0.664   1.555   3.208 -0.0123  0.6969  0.6167
  632SOL    HW2 1953   0.635   1.545   3.356 -0.5274 -0.2108  0.4602
  633SOL     OW 1954   1.341   4.798   4.588  0.3221 -0.5290  0.7128
  633SOL    HW1 1955   1.436   4.806   4.586  0.3695 -0.1950 -3.2994
  633SOL    HW2 1956   1.310   4.888   4.600  0.5901 -0.1723 -1.0569
  634SOL     OW 1957   3.968   0.830   3.253 -0.0625  0.0827  0.3134
  634SOL    HW1 1958   3.967   0.899   3.320 -2.6994 -0.7858  1.3164
  634SOL    HW2 1959   4.024   0.762   3.289  0.7926  0.7683  0.3157
  635SOL     OW 1960   1.105   1.655   1.543 -0.0929  0.5907  0.2408
  635SOL    HW1 1961   1.110   1.620   1.454 -2.7492  0.2522  0.1355
  635SOL    HW2 1962   1.191   1.692   1.559  1.2207 -1.3933 -1.5959
  636SOL     OW 1963   1.211   1.348   1.694 -0.2182 -0.5355  0.2365
  636SOL    HW1 1964   1.140   1.409   1.675  0.5722  0.2587 -0.2197
  636SOL    HW2 1965   1.279   1.401   1.734  0.0108 -1.3481  0.9600
  637SOL     OW 1966   2.966   3.750   1.457  0.3812  0.1158  0.6242
  637SOL    HW1 1967   2.905   3.749   1.530 -1.2179  1.2377 -0.6246
  637SOL    HW2 1968   3.001   3.839   1.455  0.4879  0.0676  0.0764
  638SOL     OW 1969   3.645   3.181   3.089 -0.6211 -0.0356 -0.0553
  638SOL    HW1 1970   3.569   3.179   3.030  0.4732 -0.9216 -1.4923
  638SOL    HW2 1971   3.621   3.123   3.161 -0.5072 -2.1626 -1.6144
  639SOL     OW 1972   0.269  -0.000   4.438  0.3103 -0.3385  0.0711
  639SOL    HW1 1973   0.343  -0.031   4.384  2.0219 -0.2345  2.2209
  639SOL    HW2 1974   0.310   0.038   4.515 -1.9706  1.6901  0.4028
  640SOL     OW 1975   0.338   1.723   4.531  0.0364  0.0565 -0.0170
  640SOL    HW1 1976   0.353   1.777   4.609  1.7235  1.2375 -1.0993
  640SOL    HW2 1977   0.411   1.661   4.531  0.6450  0.7485 -1.1977
  641SOL     OW 1978   3.905   2.339   1.384 -0.1827 -0.1093  0.1191
  641SOL    HW1 1979   3.903   2.348   1.480 -3.9568 -1.0289  0.2719
  641SOL    HW2 1980   3.865   2.419   1.352 -1.0895 -0.7899 -0.5082
  642SOL     OW 1981   4.564   3.781   4.962  0.3262 -0.4826 -0.0634
  642SOL    HW1 1982   4.585   3.688   4.975  2.2914 -0.1264 -0.3703
  642SOL    HW2 1983   4.647   3.826   4.973 -0.4292  1.1680 -0.7994
  643SOL     OW 1984   3.395   1.192   2.264  0.4787 -0.1789 -0.3901
  643SOL    HW1 1985   3.485   1.223   2.266  0.2615  0.4921 -0.5398
  643SOL    HW2 1986   3.345   1.261   2.310 -0.0458 -0.2039 -0.9060
  644SOL     OW 1987   3.119   3.760   0.650 -0.4767  0.6327 -0.2891
  644SOL    HW1 1988   3.075   3.796   0.573 -1.8461  1.3300  0.7747
  644SOL    HW2 1989   3.110   3.666   0.641  0.9145  0.5866 -1.8209
  645SOL     OW 1990   2.878   1.940   1.275 -0.2270  0.1945  0.6905
  645SOL    HW1 1991   2.849   2.008   1.214 -0.4659 -2.1495 -2.0356
  645SOL    HW2 1992   2.953   1.978   1.320 -0.7479  2.4621 -0.2525
  646SOL     OW 1993   1.913   0.563   4.892  0.4951  0.6874  0.9088
  646SOL    HW1 1994   1.934   0.592   4.803 -1.5764  0.2373  0.2265
  646SOL    HW2 1995   1.996   0.529   4.926  1.7532  2.5036 -0.1653
  647SOL     OW 1996   0.783   4.180   0.382 -0.6992 -0.0317  0.3297
  647SOL    HW1 1997   0.816   4.261   0.341 -0.3737 -0.4596 -0.2640
  647SOL    HW2 1998   0.734   4.211   0.458 -0.0840  0.7043  0.4494
  648SOL     OW 1999   1.260   3.978   1.684  0.3163 -0.9373 -0.0116
  648SOL    HW1 2000   1.276   4.007   1.774  0.2975 -0.6572 -0.0996
  648SOL    HW2 2001   1.251   4.059   1.633  1.3108 -1.0851 -0.4480
  649SOL     OW 2002   3.313   0.576   1.731 -1.1525 -0.1686  0.1483
  649SOL    HW1 2003   3.351   0.537   1.653 -1.3932  0.1124 -0.1121
  649SOL    HW2 2004   3.226   0.605   1.704 -2.2182 -2.2121  1.1190
  650SOL     OW 2005   1.865   1.433   4.129 -0.7218  0.1614 -0.6433
  650SOL    HW1 2006   1.952   1.401   4.108 -0.8704 -0.1343 -0.8151
  650SOL    HW2 2007   1.855   1.417   4.223 -0.0006  1.6163 -0.2867
  651SOL     OW 2008   3.225   3.192   4.969  0.3021 -0.0627 -0.3909
  651SOL    HW1 2009   3.256   3.110   4.929 -0.2112  0.4701 -1.9432
  651SOL    HW2 2010   3.145   3.213   4.921  0.0865  1.0263  0.4231
  652SOL     OW 2011   4.954   1.407   0.712  0.5159  0.0564  0.4080
  652SOL    HW1 2012   4.917   1.329   0.753  1.7860 -1.4271 -1.0962
  652SOL    HW2 2013   4.974   1.379   0.623  0.7533  2.2131 -0.2538
  653SOL     OW 2014   2.764   4.789   1.768 -0.1682 -0.1416 -0.4306
  653SOL    HW1 2015   2.687   4.835   1.733  0.7903  1.7936 -0.1125
  653SOL    HW2 2016   2.758   4.801   1.862  0.4060 -0.2134 -0.3848
  654SOL     OW 2017   1.716   3.090   0.587 -0.3922  0.7100 -0.1292
  654SOL    HW1 2018   1.803   3.052   0.574  0.1265  1.5913  0.6385
  654SOL    HW2 2019   1.708   3.154   0.516 -0.5754  0.3603 -0.4261
  655SOL     OW 2020   3.229   3.926   3.944 -0.0214 -0.7256  0.1887
  655SOL    HW1 2021   3.300   3.974   3.986  0.1620 -0.2156 -0.6736
  655SOL    HW2 2022   3.199   3.985   3.874  0.8641 -2.2407 -1.5420
  656SOL     OW 2023   2.100   1.547   3.163  0.3911 -0.2937  0.4758
  656SOL    HW1 2024   2.144   1.600   3.229 -0.8564  0.5856  0.6254
  656SOL    HW2 2025   2.135   1.578   3.079  0.0152  0.4494  0.5881
  657SOL     OW 2026   0.421   2.940   4.472  0.6158  0.4785 -0.3721
  657SOL    HW1 2027   0.498   2.997   4.470  0.6034  0.4821 -1.0558
  657SOL    HW2 2028   0.347   2.999   4.487  0.3235  1.0120 -3.2484
  658SOL     OW 2029   3.280   1.502   0.265 -0.3439 -0.0581  0.2705
  658SOL    HW1 2030   3.241   1.562   0.328  0.3977  1.4541 -0.6745
  658SOL    HW2 2031   3.369   1.488   0.298 -0.6672 -1.0988  0.7683
  659SOL     OW 2032   3.349   0.206   2.461 -0.0282 -0.1639  0.3225
  659SOL    HW1 2033   3.341   0.123   2.416  0.9215 -0.5168  0.7895
  659SOL    HW2 2034   3.260   0.242   2.460 -0.0484 -0.1971 -1.7025
  660SOL     OW 2035   1.404   1.220   1.542 -0.2409 -0.3234 -0.2497
  660SOL    HW1 2036   1.375   1.132   1.567 -0.0060  0.0268  1.3819
  660SOL    HW2 2037   1.336   1.278   1.576  0.1694  0.1968 -0.3117
  661SOL     OW 2038   2.277   2.222   4.318 -0.0297  0.3362  0.2201
  661SOL    HW1 2039   2.200   2.271   4.345 -1.0407 -1.8659  1.5294
  661SOL    HW2 2040   2.245   2.162   4.251  0.7206 -0.0562  0.2020
  662SOL     OW 2041   1.400   1.067   1.261  0.2438 -0.0004  0.3076
  662SOL    HW1 2042   1.314   1.099   1.287 -0.8188 -1.7120 -0.8723
  662SOL    HW2 2043   1.450   1.063   1.342 -1.0304  0.3366  1.1389
  663SOL     OW 2044   3.778   1.803   1.443 -0.0595  0.4900  0.0528
  663SOL    HW1 2045   3.851   1.795   1.504 -1.6038  3.3016  2.5370
  663SOL    HW2 2046   3.798   1.882   1.391 -1.4338  1.5959  1.1067
  664SOL     OW 2047   3.298   0.182   0.802 -0.0382 -0.0674 -0.3660
  664SOL    HW1 2048   3.292   0.218   0.713 -1.7164 -1.1178 -0.7173
  664SOL    HW2 2049   3.380   0.132   0.802  0.2517  0.3936 -1.1480
  665SOL     OW 2050   3.850   0.275   4.305 -0.0900  0.5684 -0.2040
  665SOL    HW1 2051   3.855   0.210   4.235  2.1688 -1.2523  1.4634
  665SOL    HW2 2052   3.906   0.347   4.276 -0.9635  0.8706 -1.1842
  666SOL     OW 2053   3.260   0.315   0.531  0.2891  0.9976 -0.2846
  666SOL    HW1 2054   3.208   0.280   0.458  0.1849 -1.4728  0.8685
  666SOL    HW2 2055   3.350   0.312   0.500  0.4825 -2.0084  0.2841
  667SOL     OW 2056   1.927   4.352   2.219  0.0421  0.4266 -0.2893
  667SOL    HW1 2057   1.931   4.314   2.307 -1.2379  0.6726 -0.1131
  667SOL    HW2 2058   1.879   4.434   2.230 -0.2989  0.3623 -1.2494
  668SOL     OW 2059   0.111   1.961   1.837  0.1410 -0.4474  0.0232
  668SOL    HW1 2060   0.084   1.878   1.797 -0.8302 -0.1331 -0.0059
  668SOL    HW2 2061   0.031   2.013   1.839  0.9688  0.9517 -1.0894
  669SOL     OW 2062   0.953   4.512   1.827  0.1553 -0.7698  0.3533
  669SOL    HW1 2063   1.034   4.464   1.808 -0.0643 -1.4167  1.0006
  669SOL    HW2 2064   0.900   4.450   1.877 -1.0529 -0.6064 -0.6899
  670SOL     OW 2065   0.609   4.803   0.122 -0.0300  0.4746  0.0922
  670SOL    HW1 2066   0.516   4.814   0.104 -0.0211  0.7920  0.2384
  670SOL    HW2 2067   0.617   4.714   0.155  0.0253 -0.3785 -2.0524
  671SOL     OW 2068   2.015   2.421   2.026  0.3329 -0.3046 -0.1724
  671SOL    HW1 2069   1.942   2.465   1.982  0.4781 -0.1468 -0.2552
  671SOL    HW2 2070   1.996   2.431   2.119 -0.1570 -0.9410 -0.1937
  672SOL     OW 2071   1.433   4.748   2.798  0.2106 -0.1003  0.6479
  672SOL    HW1 2072   1.486   4.706   2.730 -1.4113 -1.9717  0.4204
  672SOL    HW2 2073   1.472   4.834   2.810  2.7554 -1.0679 -0.0518
  673SOL     OW 2074   2.779   0.219   2.040  0.4029  0.3370  0.0925
  673SOL    HW1 2075   2.778   0.192   1.948  1.4524  0.6378 -0.0198
  673SOL    HW2 2076   2.753   0.141   2.088 -1.6518  0.5636 -0.5148
  674SOL     OW 2077   1.180   3.728   3.805  0.0816  0.3373  0.2472
  674SOL    HW1 2078   1.157   3.707   3.715 -1.1879  1.4887  0.2830
  674SOL    HW2 2079   1.269   3.763   3.800 -0.2519  1.0951 -0.6745
  675SOL     OW 2080   4.310   3.868   1.022 -0.0426  0.4802 -0.1031
  675SOL    HW1 2081   4.245   3.886   1.091  0.4820  1.9024  0.0589
  675SOL    HW2 2082   4.392   3.857   1.069  0.4673  2.2400 -0.5017
  676SOL     OW 2083   1.039   0.588   1.948 -0.1986  0.2835  0.3551
  676SOL    HW1 2084   0.993   0.506   1.932 -0.4628 -0.0806  2.6777
  676SOL    HW2 2085   1.120   0.562   1.992  0.8420  1.1390 -0.9668
  677SOL     OW 2086   0.607   0.996   0.731  0.0899  0.1575 -0.0311
  677SOL    HW1 2087   0.567   1.043   0.803 -0.2854 -1.3265  0.7699
  677SOL    HW2 2088   0.553   1.017   0.655  1.5312  3.1889 -0.3608
  678SOL     OW 2089   4.109   4.280   3.822 -0.0741 -0.4054 -0.1195
  678SOL    HW1 2090   4.168   4.205   3.822  0.6023  0.1016 -1.3961
  678SOL    HW2 2091   4.166   4.356   3.816 -0.7911  0.1606  0.1029
  679SOL     OW 2092   1.853   4.875   1.873  0.1536 -0.4155 -0.3206
  679SOL    HW1 2093   1.818   4.894   1.786 -0.2435  2.4314  0.3385
  679SOL    HW2 2094   1.947   4.890   1.865  0.0107  0.6874 -0.1125
  680SOL     OW 2095   3.898   3.975   3.920 -0.3281 -0.4609  0.3023
  680SOL    HW1 2096   3.832   3.954   3.987 -1.3489  0.5340 -0.3529
  680SOL    HW2 2097   3.855   4.039   3.864  0.5545 -1.1615 -1.2416
  681SOL     OW 2098   4.408   0.771   3.138  0.1027 -0.1810  0.1356
  681SOL    HW1 2099   4.350   0.790   3.212  1.4307 -1.4414  1.5559
  681SOL    HW2 2100   4.377   0.687   3.104  0.8057 -0.6480  0.6298
  682SOL     OW 2101   1.350   4.678   3.948 -0.8997 -0.2051  0.1844
  682SOL    HW1 2102   1.331   4.771   3.936  1.9335  0.6190  1.1891
  682SOL    HW2 2103   1.412   4.676   4.021 -0.3787 -2.8343 -0.2435
  683SOL     OW 2104   2.072   0.828   2.553 -0.4523  0.6730 -0.6761
  683SOL    HW1 2105   2.059   0.735   2.538  0.8780  0.3965 -0.2555
  683SOL    HW2 2106   1.988   0.859   2.587 -1.0973 -0.2339 -1.3897
  684SOL     OW 2107   1.132   4.013   0.205  0.1305  0.4162 -0.2559
  684SOL    HW1 2108   1.198   4.041   0.141  0.7755 -0.0851  0.1762
  684SOL    HW2 2109   1.055   4.067   0.185  1.0511  1.9035  0.0065
  685SOL     OW 2110   3.323   4.728   1.921 -0.3198  0.0454 -0.2466
  685SOL    HW1 2111   3.394   4.671   1.892 -0.9465  0.1374 -2.0916
  685SOL    HW2 2112   3.296   4.693   2.006 -0.1998 -1.9465 -0.9970
  686SOL     OW 2113   2.084   4.779   1.242 -0.1840 -0.2881  0.3935
  686SOL    HW1 2114   2.027   4.851   1.213 -2.1513 -1.9162  0.0052
  686SOL    HW2 2115   2.084   4.786   1.337 -0.3318  0.2473  0.3607
  687SOL     OW 2116   1.040   4.433   4.279  0.3876 -0.2057 -0.6552
  687SOL    HW1 2117   1.057   4.387   4.361 -1.2450  0.8940  0.3326
  687SOL    HW2 2118   1.117   4.489   4.267  0.8324 -0.6863 -0.1305
  688SOL     OW 2119   0.904   3.531   1.529  0.3552 -0.0738  0.0658
  688SOL    HW1 2120   0.870   3.449   1.566 -0.2252  0.4721  0.7713
  688SOL    HW2 2121   0.856   3.542   1.447 -0.7715  0.3715  0.7551
  689SOL     OW 2122   2.791   1.443   4.374  0.2223 -0.3087 -0.6029
  689SOL    HW1 2123   2.786   1.525   4.424  0.4781 -0.9635  0.5281
  689SOL    HW2 2124   2.862   1.394   4.417 -0.3259 -1.3649 -0.8943
  690SOL     OW 2125   0.930   2.770   0.847 -0.1885  0.0087  0.7281
  690SOL    HW1 2126   0.917   2.865   0.847 -0.9397 -0.0872  0.7403
  690SOL    HW2 2127   0.863   2.737   0.787  0.4480 -0.4695  0.2729
  691SOL     OW 2128   0.797   0.122   1.013 -0.0858  0.4779 -0.0376
  691SOL    HW1 2129   0.783   0.134   1.107 -2.2844 -0.5294 -0.1692
  691SOL    HW2 2130   0.852   0.196   0.987  1.1767  0.3891  2.1416
  692SOL     OW 2131   3.411   4.654   3.160 -0.0864  0.0857  0.2415
  692SOL    HW1 2132   3.431   4.657   3.254  2.2923 -1.1121 -0.1412
  692SOL    HW2 2133   3.487   4.692   3.118 -1.1582  0.6818 -1.2517
  693SOL     OW 2134   3.112   4.616   2.422 -0.7797  0.1318  0.0853
  693SOL    HW1 2135   3.024   4.587   2.398 -0.9143  0.0091  0.7003
  693SOL    HW2 2136   3.169   4.543   2.399 -1.0911 -0.5805  1.4601
  694SOL     OW 2137   2.391   4.293   2.499  0.4324 -0.2827  0.5074
  694SOL    HW1 2138   2.423   4.317   2.586 -0.3362  2.1752  0.1898
  694SOL    HW2 2139   2.470   4.292   2.445  0.5546  1.5797  0.5807
  695SOL     OW 2140   2.992   4.701   0.344  0.5111 -0.6566 -0.1638
  695SOL    HW1 2141   3.079   4.666   0.327 -0.0839 -1.4266 -1.9202
  695SOL    HW2 2142   2.985   4.777   0.285  0.2547 -0.1405  0.5183
  696SOL     OW 2143   4.021   4.188   1.604  0.5007 -0.1937 -0.5357
  696SOL    HW1 2144   3.958   4.117   1.596  0.7217 -0.5836  0.8294
  696SOL    HW2 2145   4.091   4.151   1.658  0.2067  1.3127  0.9484
  697SOL     OW 2146   0.423   2.115   2.598 -0.4971  0.0029  0.0700
  697SOL    HW1 2147   0.406   2.050   2.666 -0.4791  0.1252  0.1906
  697SOL    HW2 2148   0.372   2.084   2.523 -2.6800  1.2558  0.9468
  698SOL     OW 2149   1.150   3.655   0.755  0.1378  0.1914 -0.3848
  698SOL    HW1 2150   1.090   3.627   0.824  1.2384  0.4929  0.7098
  698SOL    HW2 2151   1.161   3.749   0.769  1.4885  0.0048 -0.0788
  699SOL     OW 2152   0.868   2.760   4.390 -0.1642  0.5578  0.3043
  699SOL    HW1 2153   0.948   2.808   4.409 -0.1339  1.3284 -1.5315
  699SOL    HW2 2154   0.866   2.689   4.455  1.7678  0.7798  0.6660
  700SOL     OW 2155   3.980   1.333   0.411 -0.6927 -0.7065 -0.5335
  700SOL    HW1 2156   3.939   1.406   0.457 -1.5483 -2.1726  1.1758
  700SOL    HW2 2157   3.909   1.269   0.400  0.3141 -1.8178 -0.7875
  701SOL     OW 2158   3.844   0.899   3.028  0.2473  0.5647  0.7701
  701SOL    HW1 2159   3.903   0.872   3.099  1.5590  1.5595  0.1091
  701SOL    HW2 2160   3.769   0.840   3.035  0.0148  1.0546  3.4010
  702SOL     OW 2161   1.712   3.801   1.917  0.6528  0.2575 -0.3937
  702SOL    HW1 2162   1.638   3.745   1.892 -0.4911  0.2949  2.4868
  702SOL    HW2 2163   1.694   3.824   2.008  3.3990  1.6785 -0.1197
  703SOL     OW 2164   3.282   3.020   2.507 -0.1522 -0.3693 -0.5043
  703SOL    HW1 2165   3.331   3.102   2.505 -1.8285  0.7606 -3.9660
  703SOL    HW2 2166   3.194   3.046   2.534 -0.5260 -1.1680 -0.9300
  704SOL     OW 2167   3.123   4.693   3.136  0.3710 -0.2239 -0.3448
  704SOL    HW1 2168   3.216   4.674   3.130  0.0518 -2.1975  0.3801
  704SOL    HW2 2169   3.119   4.787   3.154  2.1995 -0.0543 -0.6685
  705SOL     OW 2170   3.463   4.841   4.746  0.0128 -0.1892 -0.1784
  705SOL    HW1 2171   3.411   4.896   4.805  1.5389  0.0888  0.9840
  705SOL    HW2 2172   3.550   4.883   4.745  0.6320 -1.4358 -0.8798
  706SOL     OW 2173   0.744   3.585   0.214 -0.1738 -0.1665  0.0314
  706SOL    HW1 2174   0.691   3.528   0.158 -0.8557 -1.1556  1.6089
  706SOL    HW2 2175   0.783   3.526   0.278  1.5924  0.7699 -0.1312
  707SOL     OW 2176   3.767   4.745   0.948  0.3372 -0.1004  0.7141
  707SOL    HW1 2177   3.772   4.668   1.005 -0.6726 -0.3969  0.4332
  707SOL    HW2 2178   3.716   4.808   0.999 -0.4581 -0.3175  0.2079
  708SOL     OW 2179   4.586   3.444   0.766 -0.2662  0.2585 -0.0187
  708SOL    HW1 2180   4.586   3.349   0.783  1.6958  0.2949  0.3745
  708SOL    HW2 2181   4.497   3.472   0.787 -1.2005 -1.6552 -1.1272
  709SOL     OW 2182   2.107   4.116   2.320 -0.1441 -0.6495 -0.4181
  709SOL    HW1 2183   2.086   4.171   2.395 -0.6268 -0.5738 -0.6047
  709SOL    HW2 2184   2.130   4.178   2.250 -1.1167 -0.6602 -0.7582
  710SOL     OW 2185   1.828   3.555   4.556  0.3974  0.2505 -0.0614
  710SOL    HW1 2186   1.765   3.603   4.610 -0.1052 -1.1189  0.6170
  710SOL    HW2 2187   1.910   3.557   4.606  0.6760  1.2828 -0.5343
  711SOL     OW 2188   3.218   1.391   2.801  0.1567 -0.2765  0.1964
  711SOL    HW1 2189   3.215   1.409   2.895 -2.3918  0.6025  0.0271
  711SOL    HW2 2190   3.188   1.300   2.793 -0.4737 -0.0643  0.1704
  712SOL     OW 2191   4.528   1.368   0.294 -0.3747  0.0591  0.8138
  712SOL    HW1 2192   4.545   1.279   0.326  0.3857  0.0418  0.3674
  712SOL    HW2 2193   4.614   1.406   0.280 -0.6850  1.1013  1.6101
  713SOL     OW 2194   0.743   3.214   3.152  0.1438  0.1927  0.7359
  713SOL    HW1 2195   0.788   3.278   3.207  1.2499  0.3945 -0.3489
  713SOL    HW2 2196   0.683   3.265   3.098 -0.8404  0.0102  1.6294
  714SOL     OW 2197   3.244   4.609   1.193  0.0826  0.0679  0.1763
  714SOL    HW1 2198   3.334   4.613   1.158  0.2421 -0.7499  0.4713
  714SOL    HW2 2199   3.198   4.679   1.148  0.9526  0.7040  0.2461
  715SOL     OW 2200   3.888   0.977   3.448  0.0185  0.5402 -0.1151
  715SOL    HW1 2201   3.923   1.065   3.463 -0.0115  0.6488 -0.6729
  715SOL    HW2 2202   3.793   0.989   3.443  0.0153  0.4803 -0.2034
  716SOL     OW 2203   1.740  -0.019   4.112  0.0313 -0.5833  0.0899
  716SOL    HW1 2204   1.768   0.072   4.116 -1.7399  0.0031  0.0843
  716SOL    HW2 2205   1.693  -0.033   4.194  1.2544 -1.8676  0.6138
  717SOL     OW 2206   0.337   2.658   4.461  0.2078 -0.2583  0.4374
  717SOL    HW1 2207   0.342   2.753   4.473  0.5514  0.2365 -2.7745
  717SOL    HW2 2208   0.309   2.647   4.370  1.2636 -3.2476  0.3876
  718SOL     OW 2209   0.902   4.802   4.311  0.0432  0.0963 -0.2361
  718SOL    HW1 2210   0.894   4.742   4.386  3.2320 -0.4043 -0.1861
  718SOL    HW2 2211   0.890   4.889   4.350 -1.0956 -0.2771  0.3152
  719SOL     OW 2212   0.409   4.311   1.129  0.0585 -0.3665 -0.1321
  719SOL    HW1 2213   0.469   4.351   1.191 -1.8440  0.0605  1.5541
  719SOL    HW2 2214   0.403   4.219   1.157  0.1350 -0.4705 -0.4533
  720SOL     OW 2215   3.693   4.530   2.427  0.3629 -0.1634 -0.6883
  720SOL    HW1 2216   3.672   4.611   2.474 -0.6740 -1.3516  1.0464
  720SOL    HW2 2217   3.611   4.480   2.429  0.6036 -0.7434 -2.9045
  721SOL     OW 2218   4.902   0.130   3.571 -0.1638  0.4590  0.1171
  721SOL    HW1 2219   4.994   0.144   3.551  0.1469 -0.5227  0.7748
  721SOL    HW2 2220   4.902   0.059   3.636 -1.3425  0.9249  0.6521
  722SOL     OW 2221   3.115   0.357   4.163  0.9067 -0.5604 -0.2592
  722SOL    HW1 2222   3.088   0.447   4.179  0.7722 -0.7379  0.5713
  722SOL    HW2 2223   3.192   0.364   4.107  0.1921  0.0171 -1.1861
  723SOL     OW 2224   4.870   3.017   2.267  0.4192 -0.0342 -0.1928
  723SOL    HW1 2225   4.776   2.998   2.270  0.6110 -0.8947  1.7882
  723SOL    HW2 2226   4.909   2.960   2.333  2.5658 -0.7444 -1.9275
  724SOL     OW 2227   0.016   2.948   0.429  0.1315 -0.4295 -0.1838
  724SOL    HW1 2228   0.011   2.935   0.524  0.4000  1.3054  0.0975
  724SOL    HW2 2229   0.037   3.041   0.419  0.8578 -0.7548 -1.9389
  725SOL     OW 2230   3.085   0.660   3.312  0.2245  0.0258 -0.0522
  725SOL    HW1 2231   3.106   0.572   3.343 -1.0977 -0.2843  0.0286
  725SOL    HW2 2232   3.080   0.652   3.217  2.5583  0.5951 -0.2823
  726SOL     OW 2233   0.578   2.265   0.789  0.0410 -0.0176 -0.0737
  726SOL    HW1 2234   0.640   2.318   0.840  0.3205 -0.7678  0.3927
  726SOL    HW2 2235   0.527   2.218   0.855 -0.5048  0.0108 -0.4729
  727SOL     OW 2236   3.922   1.937   2.594 -0.0236 -0.5372  0.4351
  727SOL    HW1 2237   3.899   2.029   2.580 -0.7550 -0.7135  0.4275
  727SOL    HW2 2238   3.946   1.905   2.507  1.9258  0.0717  0.6955
  728SOL     OW 2239   3.401   0.653   2.519 -0.5235  1.1171 -0.3375
  728SOL    HW1 2240   3.426   0.591   2.588  1.1882  0.6445 -1.3290
  728SOL    HW2 2241   3.360   0.599   2.451 -2.2608  1.5887  0.2692
  729SOL     OW 2242   3.635   4.100   0.355 -0.2874 -0.2633 -0.0251
  729SOL    HW1 2243   3.655   4.150   0.275  1.4795 -0.0620  0.4951
  729SOL    HW2 2244   3.540   4.088   0.353 -0.7824  2.8891 -0.3146
  730SOL     OW 2245   1.175   4.622   2.676  0.0992  0.2928 -0.0748
  730SOL    HW1 2246   1.235   4.689   2.707  0.0819  0.3794 -0.2267
  730SOL    HW2 2247   1.229   4.568   2.618  0.3694 -0.4050  0.7984
  731SOL     OW 2248   4.414   2.620   3.680  0.4956 -0.1595  0.5472
  731SOL    HW1 2249   4.434   2.658   3.595 -0.8711  0.9719  0.6981
  731SOL    HW2 2250   4.414   2.525   3.664  2.5250 -0.0966 -0.1505
  732SOL     OW 2251   4.195   0.517   0.880  0.3320 -0.8561 -0.3741
  732SOL    HW1 2252   4.173   0.542   0.790  2.1022  2.0975 -0.1196
  732SOL    HW2 2253   4.290   0.499   0.877  0.7602  0.9125  1.1505
  733SOL     OW 2254   2.502   3.141   2.810  0.1894 -0.1397 -0.3075
  733SOL    HW1 2255   2.578   3.200   2.817 -0.1330  0.0716  2.7870
  733SOL    HW2 2256   2.529   3.062   2.857 -1.4096 -0.1642  0.6095
  734SOL     OW 2257   3.290   4.196   4.967  0.1708  0.0851  0.2173
  734SOL    HW1 2258   3.200   4.203   4.936  0.4824 -0.3168 -0.8408
  734SOL    HW2 2259   3.322   4.286   4.969  0.0536  0.1452 -0.3898
  735SOL     OW 2260   0.525   0.438   2.221 -0.1655  0.2442  0.1931
  735SOL    HW1 2261   0.587   0.479   2.281 -0.2388 -1.0702  1.2221
  735SOL    HW2 2262   0.507   0.505   2.155 -0.3592  1.8797  1.8339
  736SOL     OW 2263   2.017   1.780   0.500  0.2777  0.2213  0.7936
  736SOL    HW1 2264   1.942   1.789   0.559  0.0511  0.2372  0.5038
  736SOL    HW2 2265   1.982   1.735   0.423  0.6302 -0.0265  0.7777
  737SOL     OW 2266   3.709   0.077   0.802 -0.2802 -0.0731  0.7853
  737SOL    HW1 2267   3.629   0.059   0.852 -1.5900  0.5470 -0.9940
  737SOL    HW2 2268   3.758   0.138   0.858 -0.7132 -0.9468  2.1909
  738SOL     OW 2269   3.430   3.542   0.206 -0.0338 -0.3748  0.1704
  738SOL    HW1 2270   3.486   3.555   0.129 -0.0055  0.9953  0.3948
  738SOL    HW2 2271   3.372   3.469   0.182  0.0902 -0.0818 -1.0738
  739SOL     OW 2272   0.232   4.384   3.092 -0.3570 -0.3612  0.2645
  739SOL    HW1 2273   0.285   4.403   3.170  1.9290  1.5547 -1.6115
  739SOL    HW2 2274   0.167   4.454   3.090  0.7979  0.7431 -0.4852
  740SOL     OW 2275   0.289   2.342   0.069  0.2582 -0.2019 -0.5338
  740SOL    HW1 2276   0.341   2.319  -0.008  1.5991 -0.4806  0.4154
  740SOL    HW2 2277   0.344   2.318   0.143 -1.3669 -0.7784  0.5375
  741SOL     OW 2278   4.448   1.959   3.773  0.6279 -0.3625  0.1482
  741SOL    HW1 2279   4.467   1.875   3.731 -1.1287 -1.0488  0.6399
  741SOL    HW2 2280   4.486   2.024   3.713  0.7968 -1.4300 -0.9570
  742SOL     OW 2281   0.549   2.445   4.483  0.4879  0.1451  0.6092
  742SOL    HW1 2282   0.565   2.478   4.395 -0.2286 -1.0217  0.0019
  742SOL    HW2 2283   0.481   2.502   4.518 -0.9081 -0.7584 -0.5056
  743SOL     OW 2284   1.524   0.567   1.830  0.2663 -0.2537 -0.2251
  743SOL    HW1 2285   1.522   0.548   1.924 -2.3222  1.9663  0.2853
  743SOL    HW2 2286   1.617   0.582   1.811  0.6417  1.6485  2.5482
  744SOL     OW 2287   0.295   2.699   2.227  0.6325  0.0282  0.0501
  744SOL    HW1 2288   0.208   2.732   2.205  0.1889 -1.0445  0.1274
  744SOL    HW2 2289   0.355   2.767   2.196 -0.2701  1.3755  1.1092
  745SOL     OW 2290   1.836   1.707   3.115  0.5596 -0.3270  0.0125
  745SOL    HW1 2291   1.869   1.743   3.196 -1.2198 -0.9858  1.1034
  745SOL    HW2 2292   1.759   1.656   3.141 -0.0464 -0.5952 -2.0774
  746SOL     OW 2293   0.027   3.627   4.067  0.3494 -0.1246 -0.2797
  746SOL    HW1 2294   0.093   3.694   4.085  1.6338 -1.5794  0.6990
  746SOL    HW2 2295   0.068   3.568   4.004 -1.2803  0.6955 -2.2205
  747SOL     OW 2296   0.502   0.082   1.719  0.3896 -0.0153  0.1398
  747SOL    HW1 2297   0.506  -0.014   1.721  0.0676 -0.0515 -0.5896
  747SOL    HW2 2298   0.413   0.103   1.748  0.5340  0.0738  0.5190
  748SOL     OW 2299   3.679   4.813   2.442  0.1811 -0.0498  0.2086
  748SOL    HW1 2300   3.725   4.851   2.368  2.0296  0.9692  1.7752
  748SOL    HW2 2301   3.639   4.887   2.487  1.1283 -0.2879  1.5269
  749SOL     OW 2302   3.576   2.655   3.165 -0.1209  0.3007 -0.3115
  749SOL    HW1 2303   3.631   2.718   3.119  0.1012 -0.4107 -1.0471
  749SOL    HW2 2304   3.565   2.692   3.252 -0.3471  1.5584 -0.8579
  750SOL     OW 2305   4.159   1.529   4.463  0.4993  0.6860 -0.2240
  750SOL    HW1 2306   4.210   1.581   4.525  0.7561  1.4346 -1.0452
  750SOL    HW2 2307   4.155   1.582   4.384  0.2053 -0.2677 -0.8733
  751SOL     OW 2308   0.479   2.827   2.550  0.0499  0.3391  0.1502
  751SOL    HW1 2309   0.537   2.903   2.558 -1.1883  1.5480 -1.6949
  751SOL    HW2 2310   0.503   2.786   2.467  0.5217 -1.1888  0.9912
  752SOL     OW 2311   2.147   3.226   2.144  0.1031  0.7230  0.4751
  752SOL    HW1 2312   2.205   3.278   2.199 -1.6005 -0.0935  3.2571
  752SOL    HW2 2313   2.115   3.288   2.079  1.9384  1.8389  0.5618
  753SOL     OW 2314   0.888   2.108   0.757  0.3402 -0.2023 -0.3916
  753SOL    HW1 2315   0.893   2.202   0.771 -1.5283 -0.1860  0.4448
  753SOL    HW2 2316   0.845   2.098   0.672 -3.2683 -0.2052  1.2822
  754SOL     OW 2317   3.791   2.351   0.303 -0.0426 -0.0673  0.4102
  754SOL    HW1 2318   3.784   2.258   0.280  0.1486 -0.4735  1.9063
  754SOL    HW2 2319   3.701   2.378   0.322 -0.1979  0.2649 -0.6987
  755SOL     OW 2320   1.449   3.918   1.361 -0.2350  0.3594 -0.0708
  755SOL    HW1 2321   1.403   3.837   1.339  0.5296 -0.0654 -0.1273
  755SOL    HW2 2322   1.529   3.889   1.405  0.6322  1.0192 -1.1558
  756SOL     OW 2323   0.252   0.288   1.168 -0.1400 -0.3752  0.4389
  756SOL    HW1 2324   0.257   0.302   1.262  0.9333  0.1211  0.3194
  756SOL    HW2 2325   0.218   0.199   1.159 -3.2083  0.5963  1.2415
  757SOL     OW 2326   1.684   3.909   0.040 -0.3969 -0.3780 -0.5358
  757SOL    HW1 2327   1.766   3.944   0.076 -0.4662 -0.8585  0.1006
  757SOL    HW2 2328   1.649   3.981  -0.012 -0.2825  0.3321  0.3464
  758SOL     OW 2329   0.146   0.630   2.058 -0.0578 -0.2391  0.1893
  758SOL    HW1 2330   0.190   0.663   2.137  0.7614 -1.6835  0.3688
  758SOL    HW2 2331   0.217   0.607   1.998 -0.6330 -0.5267 -0.3961
  759SOL     OW 2332   1.405   0.295   3.826 -0.0656  0.1049 -0.4827
  759SOL    HW1 2333   1.430   0.209   3.859  0.7542  0.2630 -0.6756
  759SOL    HW2 2334   1.448   0.358   3.884 -1.0062  0.3944 -0.0816
  760SOL     OW 2335   3.755   3.455   0.615  0.2324 -0.6266 -0.1052
  760SOL    HW1 2336   3.703   3.450   0.696 -2.1356 -4.6065 -1.5626
  760SOL    HW2 2337   3.816   3.382   0.622  0.0975 -0.9261 -1.7799
  761SOL     OW 2338   0.819   3.756   2.992 -0.2866 -0.1397  0.2828
  761SOL    HW1 2339   0.827   3.801   2.908 -1.2144  0.9303  0.7340
  761SOL    HW2 2340   0.743   3.797   3.033 -0.5408 -1.4374  1.1663
  762SOL     OW 2341   1.664   0.514   2.565  0.0449 -0.7325 -0.1749
  762SOL    HW1 2342   1.572   0.538   2.570  0.4389  1.0276 -0.6292
  762SOL    HW2 2343   1.698   0.526   2.654  0.0333 -0.5125 -0.2006
  763SOL     OW 2344   0.671   4.065   2.590  0.6252 -0.2833 -0.6918
  763SOL    HW1 2345   0.712   4.144   2.556  1.5052  0.6152  2.1197
  763SOL    HW2 2346   0.583   4.092   2.615  0.7781 -0.2882 -0.1301
  764SOL     OW 2347   3.159   2.763   4.554 -0.2033 -0.1101  0.4005
  764SOL    HW1 2348   3.236   2.714   4.583  0.3025  1.3242  1.6421
  764SOL    HW2 2349   3.171   2.775   4.460  0.6485 -0.6503  0.4379
  765SOL     OW 2350   2.582   1.088   0.927  0.1253 -0.2948  0.2363
  765SOL    HW1 2351   2.585   1.160   0.990 -0.3202 -1.2513  1.3785
  765SOL    HW2 2352   2.516   1.116   0.863  0.4550  0.6058  0.2785
  766SOL     OW 2353   0.447   0.111   0.118  0.9590  0.0305 -0.1134
  766SOL    HW1 2354   0.431   0.017   0.131 -0.8689  0.1519 -1.1679
  766SOL    HW2 2355   0.414   0.152   0.198  3.4476 -0.2928  1.1827
  767SOL     OW 2356   2.650   3.138   1.645 -0.5291  0.1956 -0.3010
  767SOL    HW1 2357   2.651   3.083   1.724  0.3266  1.6387  0.7383
  767SOL    HW2 2358   2.704   3.091   1.582 -0.3424 -0.4654  0.3371
  768SOL     OW 2359   4.987   2.553   1.862  0.1485  0.3832 -0.2609
  768SOL    HW1 2360   4.988   2.552   1.958 -0.8877 -0.1245 -0.2449
  768SOL    HW2 2361   4.897   2.573   1.838 -0.3635 -2.4326 -1.1062
  769SOL     OW 2362   0.599   0.367   1.798  0.2426  0.1717 -0.2828
  769SOL    HW1 2363   0.559   0.391   1.715 -1.3472 -0.9963  0.1020
  769SOL    HW2 2364   0.569   0.277   1.814  1.7301 -0.1678  0.8387
  770SOL     OW 2365   2.521   2.522   3.296 -0.1982  0.5743 -0.7646
  770SOL    HW1 2366   2.484   2.607   3.318 -0.2789 -0.1367  2.4153
  770SOL    HW2 2367   2.614   2.530   3.319 -0.2048 -0.1513 -0.4513
  771SOL     OW 2368   4.693   4.808   1.231 -0.0173  0.5909  0.1984
  771SOL    HW1 2369   4.725   4.848   1.150 -1.2196 -0.9120 -1.0660
  771SOL    HW2 2370   4.722   4.869   1.300  3.7817  0.3750 -0.9600
  772SOL     OW 2371   1.973   2.097   0.405 -0.8784  0.6192  0.0009
  772SOL    HW1 2372   1.881   2.072   0.397 -0.3791 -1.1596 -0.4790
  772SOL    HW2 2373   2.012   2.030   0.461  0.2490  1.0561 -0.2258
  773SOL     OW 2374   1.076   1.692   2.414  0.3541  0.6419  0.3924
  773SOL    HW1 2375   0.987   1.695   2.380  0.5078  0.0469 -0.0642
  773SOL    HW2 2376   1.130   1.664   2.340  0.8413  0.4564  0.8099
  774SOL     OW 2377   2.063   1.043   2.837 -0.5591  0.1898 -0.3781
  774SOL    HW1 2378   2.039   1.133   2.814  0.3882  0.4457 -0.3878
  774SOL    HW2 2379   2.158   1.045   2.849 -0.5875 -0.7055  0.1097
  775SOL     OW 2380   4.041   0.689  -0.011 -0.3724 -0.2690 -0.4627
  775SOL    HW1 2381   4.099   0.631   0.039 -1.1887 -0.1114  0.7151
  775SOL    HW2 2382   3.956   0.646  -0.009 -0.3565 -0.4021 -2.0125
  776SOL     OW 2383   1.466   3.680   2.718 -0.5639  0.4497  0.6967
  776SOL    HW1 2384   1.550   3.662   2.759 -0.7694 -1.1924  0.4776
  776SOL    HW2 2385   1.410   3.709   2.789 -0.2977 -0.2057  1.1869
  777SOL     OW 2386   0.379   0.697   3.877  0.6022  0.0725 -0.2704
  777SOL    HW1 2387   0.365   0.774   3.932 -1.0452 -1.0969  1.0842
  777SOL    HW2 2388   0.430   0.637   3.931 -0.6815 -0.9321 -0.0978
  778SOL     OW 2389   1.583   1.855   4.232 -0.1935  0.3442 -0.4327
  778SOL    HW1 2390   1.633   1.796   4.174  0.3881  1.4436 -1.0740
  778SOL    HW2 2391   1.635   1.859   4.312 -0.3787 -0.2301 -0.2790
  779SOL     OW 2392   2.459   3.240   2.563  0.4425  0.3533  0.1299
  779SOL    HW1 2393   2.487   3.185   2.636  0.6005 -0.4262 -0.4930
  779SOL    HW2 2394   2.498   3.199   2.486 -1.0347  0.1904 -0.5750
  780SOL     OW 2395   0.816   0.054   4.414  0.5616 -0.5307 -0.2818
  780SOL    HW1 2396   0.740   0.112   4.404  1.5861  0.8355 -0.3665
  780SOL    HW2 2397   0.792  -0.003   4.487 -1.4433 -1.6271 -1.7165
  781SOL     OW 2398   4.888   4.087   4.164  0.2458 -0.3465  0.0718
  781SOL    HW1 2399   4.982   4.098   4.180  0.1972  0.4605 -0.1873
  781SOL    HW2 2400   4.883   4.052   4.075  0.2450  0.9217 -0.4368
  782SOL     OW 2401   2.058   2.859   4.264 -0.1869 -0.0454  0.2805
  782SOL    HW1 2402   2.055   2.877   4.358  1.3313  0.3587  0.2924
  782SOL    HW2 2403   2.045   2.945   4.223  2.6833  0.4805  0.2451
  783SOL     OW 2404   1.921   2.021   1.800  0.4865  0.0728 -0.4716
  783SOL    HW1 2405   1.928   1.925   1.804  0.3878  0.0474 -0.8980
  783SOL    HW2 2406   1.928   2.049   1.891 -2.6695 -0.5554  0.0813
  784SOL     OW 2407   2.419   1.282   2.103 -0.0091  0.6601  0.0081
  784SOL    HW1 2408   2.339   1.231   2.093 -1.2917  2.6489 -0.3901
  784SOL    HW2 2409   2.441   1.310   2.014  1.3191 -0.0701  0.0763
  785SOL     OW 2410   4.767   0.787   1.796 -0.7586  0.3488 -0.4867
  785SOL    HW1 2411   4.822   0.864   1.779 -1.8851  1.3330  0.1505
  785SOL    HW2 2412   4.802   0.719   1.739  1.3234  0.8267  0.1292
  786SOL     OW 2413   4.245   2.393   1.968  0.0408 -0.5888  0.6394
  786SOL    HW1 2414   4.209   2.435   2.046 -1.7971 -1.5162  0.3538
  786SOL    HW2 2415   4.319   2.448   1.942 -1.0673  1.3253  1.3859
  787SOL     OW 2416   2.558   1.670   4.771 -0.2594  0.3303 -0.8452
  787SOL    HW1 2417   2.621   1.605   4.801  2.1699  3.1970  0.7852
  787SOL    HW2 2418   2.499   1.683   4.846  0.5340  1.4069 -0.3872
  788SOL     OW 2419   1.154   2.090   4.187  0.8938  0.1962  0.6004
  788SOL    HW1 2420   1.082   2.067   4.246  2.2574 -2.4518  1.3953
  788SOL    HW2 2421   1.233   2.061   4.233  2.2384  0.3336 -1.4817
  789SOL     OW 2422   4.928   2.529   4.432  0.3600  0.4909  0.6423
  789SOL    HW1 2423   4.976   2.489   4.505  0.5309  1.2903  0.9773
  789SOL    HW2 2424   4.979   2.507   4.354 -0.3012 -1.1514  0.6298
  790SOL     OW 2425   1.155   4.448   0.287 -0.6244 -0.1650  0.2695
  790SOL    HW1 2426   1.192   4.530   0.253  1.9896 -0.3922  2.2497
  790SOL    HW2 2427   1.217   4.381   0.259 -1.6090 -1.1791  0.4600
  791SOL     OW 2428   0.504   4.432   4.882 -0.2212  0.4526 -0.1247
  791SOL    HW1 2429   0.425   4.381   4.863  0.4193 -0.6081 -0.0687
  791SOL    HW2 2430   0.561   4.417   4.806  1.0729 -1.2175  1.0766
  792SOL     OW 2431   4.948   1.909   0.529  0.0953  0.2206 -0.1049
  792SOL    HW1 2432   4.875   1.971   0.537 -0.1236  0.2817 -2.0576
  792SOL    HW2 2433   4.907   1.829   0.495  0.5191 -0.7416  1.5259
  793SOL     OW 2434   3.399   3.393   2.215 -0.2054  0.4170  0.0704
  793SOL    HW1 2435   3.331   3.458   2.196  1.0625  2.0665  0.9934
  793SOL    HW2 2436   3.469   3.413   2.153  0.8706  1.0463  1.4242
  794SOL     OW 2437   0.019   3.917   0.245  0.1092 -0.2021  0.1768
  794SOL    HW1 2438   0.009   3.861   0.322  0.8153  0.0024  0.4243
  794SOL    HW2 2439  -0.017   4.002   0.271  0.4580 -0.0980  0.3270
  795SOL     OW 2440   4.858   0.708   2.081 -0.0190  0.2346 -0.2573
  795SOL    HW1 2441   4.951   0.687   2.071 -0.2775 -0.6553 -0.9613
  795SOL    HW2 2442   4.832   0.743   1.996  0.1139  2.4308  0.5424
  796SOL     OW 2443   4.670   0.409   2.829  0.3467 -0.2811  0.6146
  796SOL    HW1 2444   4.654   0.325   2.787 -0.1888 -0.0773  0.4022
  796SOL    HW2 2445   4.751   0.441   2.788  1.0308 -1.0834  1.3223
  797SOL     OW 2446   0.357   4.845   0.349 -0.4236  0.1301  0.3744
  797SOL    HW1 2447   0.298   4.891   0.409 -1.1816 -1.0742  0.5813
  797SOL    HW2 2448   0.314   4.761   0.332  0.4670 -0.1239 -0.7473
  798SOL     OW 2449   2.271   0.136   1.968  0.5485 -0.2546  0.1659
  798SOL    HW1 2450   2.193   0.116   2.019  0.2757  2.0112  0.7382
  798SOL    HW2 2451   2.240   0.195   1.899  1.7062  0.4441  0.2189
  799SOL     OW 2452   4.716   2.766   0.069 -0.9924 -0.1932 -0.3693
  799SOL    HW1 2453   4.762   2.721  -0.002 -0.7475 -0.0400 -0.3089
  799SOL    HW2 2454   4.624   2.766   0.042 -0.7063  1.2750 -1.4307
  800SOL     OW 2455   3.094   0.234   4.932  0.3141 -0.2847  0.3154
  800SOL    HW1 2456   3.056   0.274   4.853 -0.5425 -1.0140  0.3402
  800SOL    HW2 2457   3.113   0.308   4.990  0.8007  0.2501 -0.4949
  801SOL     OW 2458   3.447   1.583   3.245  0.0339  0.7208 -0.0476
  801SOL    HW1 2459   3.411   1.562   3.332  0.9708 -0.0724  0.1776
  801SOL    HW2 2460   3.407   1.666   3.222  0.4772  1.4321  1.5741
  802SOL     OW 2461   3.379   4.971   4.088 -0.1387  0.5028  0.7619
  802SOL    HW1 2462   3.446   5.027   4.049  0.1285  0.7117  1.5022
  802SOL    HW2 2463   3.416   4.883   4.084 -1.4618 -0.0589 -2.4521
  803SOL     OW 2464   4.781   2.395   4.621 -0.3459  0.1019  0.2559
  803SOL    HW1 2465   4.831   2.452   4.562  0.5202 -0.4623  0.4271
  803SOL    HW2 2466   4.781   2.310   4.578  0.4810 -0.3707  1.1429
  804SOL     OW 2467   1.433   2.571   4.410  0.2271 -0.8133 -0.1332
  804SOL    HW1 2468   1.465   2.649   4.455  1.7497 -0.1662 -2.2176
  804SOL    HW2 2469   1.352   2.599   4.368 -0.8419 -1.2381  1.5492
  805SOL     OW 2470   1.306   2.344   3.789  0.0092 -0.4277  0.1910
  805SOL    HW1 2471   1.312   2.356   3.694  2.1877  0.3729  0.3652
  805SOL    HW2 2472   1.269   2.427   3.820  1.3450  0.2147  0.1710
  806SOL     OW 2473   4.349   1.384   0.664 -0.3474  0.2930 -0.2473
  806SOL    HW1 2474   4.427   1.331   0.684  0.7358  1.9865  0.3094
  806SOL    HW2 2475   4.299   1.331   0.603 -0.5876 -2.4188  2.1000
  807SOL     OW 2476   4.033   1.948   0.362 -0.3731  0.2473 -0.6107
  807SOL    HW1 2477   4.080   2.019   0.406  0.7731 -0.1741 -1.0940
  807SOL    HW2 2478   3.956   1.989   0.324  0.6390  1.3953 -1.4885
  808SOL     OW 2479   4.208   0.680   3.840  0.5543 -0.3864  0.5055
  808SOL    HW1 2480   4.178   0.627   3.913 -0.3633 -1.0059 -0.2955
  808SOL    HW2 2481   4.303   0.674   3.843  0.4808 -1.7834  0.6545
  809SOL     OW 2482   3.017   0.295   2.152  0.6347  0.2261 -0.5488
  809SOL    HW1 2483   3.069   0.352   2.096  0.3292  0.4729 -0.5825
  809SOL    HW2 2484   2.939   0.274   2.099 -0.6839  2.1332  0.5211
  810SOL     OW 2485   1.737   1.988   2.076  0.3536  0.3285  0.1787
  810SOL    HW1 2486   1.814   2.045   2.083  0.5530  0.0415  0.3295
  810SOL    HW2 2487   1.675   2.023   2.139  0.9646 -0.3957  1.1981
  811SOL     OW 2488   0.842   0.998   0.871 -0.0182 -0.7362 -0.0085
  811SOL    HW1 2489   0.906   0.997   0.800 -1.0212  1.8166 -1.0466
  811SOL    HW2 2490   0.757   0.994   0.828 -0.6349 -0.1955  1.1060
  812SOL     OW 2491   1.926   1.865   2.897 -0.4332 -0.0325  0.8307
  812SOL    HW1 2492   1.895   1.821   2.976 -1.7049 -2.7335 -0.9849
  812SOL    HW2 2493   1.995   1.807   2.863  0.7969  1.5916  0.4445
  813SOL     OW 2494   0.287   0.669   1.547  0.0127 -0.3650 -0.5664
  813SOL    HW1 2495   0.220   0.654   1.480 -0.1731 -0.2230 -0.4132
  813SOL    HW2 2496   0.263   0.753   1.586 -0.0739 -0.6066 -0.0971
  814SOL     OW 2497   0.899   1.480   4.170 -0.3183  0.5661  0.6067
  814SOL    HW1 2498   0.930   1.571   4.172 -0.3402  0.5677  1.2315
  814SOL    HW2 2499   0.970   1.430   4.211  1.1273 -0.1723 -2.5365
  815SOL     OW 2500   0.134   1.907   1.158  0.0223  0.2374  0.5859
  815SOL    HW1 2501   0.104   1.892   1.069 -0.7804 -0.6939  0.9888
  815SOL    HW2 2502   0.081   1.980   1.189  0.3951  0.6489  0.2641
  816SOL     OW 2503   1.295   0.075   0.680 -0.1826  0.1100 -0.3770
  816SOL    HW1 2504   1.270   0.144   0.619 -0.2094  0.0671 -0.4151
  816SOL    HW2 2505   1.377   0.040   0.646  1.7095  2.4202  1.5174
  817SOL     OW 2506   2.901   4.784   3.643 -0.2594 -0.4738 -0.2076
  817SOL    HW1 2507   2.919   4.708   3.698  0.0680  0.3459  0.8450
  817SOL    HW2 2508   2.987   4.820   3.623 -0.3982 -0.5181 -0.9289
  818SOL     OW 2509   2.099   0.776   0.521  0.2903 -0.4159  0.7665
  818SOL    HW1 2510   2.083   0.832   0.598  0.0343  2.4781 -1.2303
  818SOL    HW2 2511   2.021   0.721   0.515 -0.0213 -0.1655  2.1230
  819SOL     OW 2512   2.206   3.425   2.735 -0.0619 -0.0212  0.0551
  819SOL    HW1 2513   2.268   3.355   2.716 -1.4956 -1.3394 -0.0146
  819SOL    HW2 2514   2.140   3.418   2.665 -0.1464  1.5550 -0.0771
  820SOL     OW 2515   3.951   0.208   1.088  0.6233  0.1863 -0.0742
  820SOL    HW1 2516   3.989   0.289   1.055  0.3401 -0.4877 -2.2195
  820SOL    HW2 2517   4.005   0.138   1.050 -0.1871 -0.6719  0.3012
  821SOL     OW 2518   2.876   2.673   4.487 -0.4823  0.7718  0.1858
  821SOL    HW1 2519   2.953   2.721   4.517  0.7263 -0.3219 -1.1032
  821SOL    HW2 2520   2.863   2.702   4.397 -0.5199 -0.3506 -0.1810
  822SOL     OW 2521   0.527   4.605   3.479 -0.0074 -0.5040  0.1182
  822SOL    HW1 2522   0.526   4.697   3.451  0.3213 -1.2640 -2.7505
  822SOL    HW2 2523   0.439   4.589   3.513 -0.1919  0.7592  0.2956
  823SOL     OW 2524   2.825   1.715   0.383 -0.5367  0.3005  0.1801
  823SOL    HW1 2525   2.756   1.761   0.336 -1.3691 -0.2574  0.8232
  823SOL    HW2 2526   2.884   1.784   0.413 -2.3542  1.1355  2.1019
  824SOL     OW 2527   3.538   2.444   0.359 -0.1249 -0.3686 -0.8573
  824SOL    HW1 2528   3.460   2.388   0.360 -0.0505 -0.4665  0.3254
  824SOL    HW2 2529   3.547   2.471   0.267 -1.6040 -0.2797 -0.9944
  825SOL     OW 2530   0.060   1.077   2.716  0.0752 -0.1739  0.1706
  825SOL    HW1 2531   0.030   1.042   2.632 -0.3054 -0.3643  0.3822
  825SOL    HW2 2532   0.010   1.028   2.781 -0.1418  0.4566  0.4831
  826SOL     OW 2533   3.917   2.587   1.563 -0.2302 -0.4110  0.4747
  826SOL    HW1 2534   3.949   2.625   1.481 -0.5376 -1.5490 -0.1954
  826SOL    HW2 2535   3.851   2.649   1.593  0.6086  0.5488  0.4230
  827SOL     OW 2536   3.653   1.862   2.013  0.1105  0.0163 -0.3389
  827SOL    HW1 2537   3.596   1.892   1.943  1.6874 -0.0524 -1.7096
  827SOL    HW2 2538   3.663   1.768   1.998  0.0364 -0.1059  0.3094
  828SOL     OW 2539   4.501   4.474   4.142 -0.2363  0.1603 -0.2683
  828SOL    HW1 2540   4.580   4.421   4.155 -0.6575 -0.2692  0.6157
  828SOL    HW2 2541   4.432   4.426   4.187 -0.4842  1.8224  1.2686
  829SOL     OW 2542   2.748   0.136   1.803  0.3604 -0.3450 -0.0914
  829SOL    HW1 2543   2.667   0.093   1.775  0.6044 -0.5033 -0.5753
  829SOL    HW2 2544   2.799   0.145   1.722  0.9854 -0.5913  0.2692
  830SOL     OW 2545   1.459   1.181   0.231  0.5611  0.0537 -0.0704
  830SOL    HW1 2546   1.386   1.218   0.281 -0.7313 -0.8461 -1.1832
  830SOL    HW2 2547   1.537   1.221   0.268 -0.4912  0.9754  1.2523
  831SOL     OW 2548   3.970   3.990   0.696  0.0699 -0.1451  0.3898
  831SOL    HW1 2549   4.055   3.954   0.670  0.5284  0.6904  0.6917
  831SOL    HW2 2550   3.910   3.916   0.690  0.6986 -0.6094 -0.4069
  832SOL     OW 2551   1.685   2.320   2.910  0.2536 -0.4514  0.1874
  832SOL    HW1 2552   1.645   2.278   2.986  1.9768 -1.6336  0.5062
  832SOL    HW2 2553   1.739   2.252   2.871 -1.8931 -0.4729 -3.2173
  833SOL     OW 2554   0.656   1.233   2.849  0.6358  0.2767  0.2221
  833SOL    HW1 2555   0.573   1.265   2.885  1.1064  1.7912  0.0571
  833SOL    HW2 2556   0.639   1.223   2.755  0.8439  1.4050  0.0459
  834SOL     OW 2557   1.336   2.644   3.630  0.5152 -0.4936 -0.4872
  834SOL    HW1 2558   1.365   2.727   3.593 -0.5822  0.8342  1.4469
  834SOL    HW2 2559   1.246   2.661   3.658  0.7403 -1.8925  1.2249
  835SOL     OW 2560   1.345   3.079   1.110  0.3448 -0.2987 -0.4596
  835SOL    HW1 2561   1.383   3.166   1.098 -2.7411  0.8575 -3.3310
  835SOL    HW2 2562   1.298   3.085   1.194  1.8390  0.0133  0.3996
  836SOL     OW 2563   4.509   0.649   4.134 -0.4595  0.3908  0.4968
  836SOL    HW1 2564   4.502   0.660   4.039 -0.0778 -0.0079  0.4224
  836SOL    HW2 2565   4.560   0.725   4.163  1.1809 -0.5135  0.1209
  837SOL     OW 2566   4.734   1.836   2.854 -0.4125  0.0958  0.1687
  837SOL    HW1 2567   4.782   1.758   2.825 -2.3477 -1.0429 -0.1373
  837SOL    HW2 2568   4.690   1.868   2.776 -3.1319 -1.1318  1.0825
  838SOL     OW 2569   0.891   0.113   3.708  0.1627 -0.0436 -0.2410
  838SOL    HW1 2570   0.855   0.175   3.645 -1.4529  0.7557  1.3540
  838SOL    HW2 2571   0.948   0.165   3.764 -0.4102 -0.1788  0.4886
  839SOL     OW 2572   4.312   1.052   4.293 -0.6382  0.3410 -0.2587
  839SOL    HW1 2573   4.357   1.047   4.378  0.9579  0.3860 -1.0585
  839SOL    HW2 2574   4.274   1.140   4.291  0.8608  1.0226 -0.2896
  840SOL     OW 2575   4.855   1.124   0.242 -0.1140  0.2343  0.6263
  840SOL    HW1 2576   4.830   1.205   0.197 -0.7200 -1.0117 -1.4047
  840SOL    HW2 2577   4.936   1.097   0.200 -1.1516 -1.4275 -0.4315
  841SOL     OW 2578   3.231   0.364   1.067 -0.0479  0.3167 -0.0459
  841SOL    HW1 2579   3.313   0.367   1.116 -0.5480  0.1353  0.8340
  841SOL    HW2 2580   3.243   0.427   0.996  1.1055 -0.2150 -0.3472
  842SOL     OW 2581   4.424   0.424   3.910 -0.1374  0.4036  0.2668
  842SOL    HW1 2582   4.486   0.424   3.983 -0.3033  0.1441  0.4111
  842SOL    HW2 2583   4.340   0.401   3.950 -0.0545 -0.6849 -0.1394
  843SOL     OW 2584   3.727   0.754   4.860  0.1329 -0.7665  0.0230
  843SOL    HW1 2585   3.768   0.672   4.832 -0.7825 -1.0605 -0.5327
  843SOL    HW2 2586   3.633   0.738   4.849 -0.1990 -0.3533  1.8664
  844SOL     OW 2587   4.660   4.668   1.493  0.0959 -0.4106  0.5608
  844SOL    HW1 2588   4.690   4.697   1.407  1.0566 -1.0395  0.6689
  844SOL    HW2 2589   4.567   4.691   1.495  0.2723  0.4549 -0.2767
  845SOL     OW 2590   0.677   2.847   3.321  0.0337 -0.2552 -0.0946
  845SOL    HW1 2591   0.583   2.860   3.310 -0.1013 -0.7216  0.4677
  845SOL    HW2 2592   0.716   2.897   3.249 -0.6139  0.3859 -0.0139
  846SOL     OW 2593   2.608   3.282   1.276 -0.6511 -0.0691  0.0525
  846SOL    HW1 2594   2.523   3.265   1.317 -0.1786 -0.9982  0.6802
  846SOL    HW2 2595   2.638   3.363   1.316 -1.3118  0.3614 -0.3005
  847SOL     OW 2596   4.527   3.415   0.054  0.1409 -0.3754  0.1366
  847SOL    HW1 2597   4.554   3.333   0.095  0.3271  0.1436  1.0642
  847SOL    HW2 2598   4.587   3.481   0.088 -0.4055  0.2641 -0.1096
  848SOL     OW 2599   2.699   3.108   0.880  0.3716 -0.1489 -0.1810
  848SOL    HW1 2600   2.649   3.157   0.945 -0.0229 -0.9336  0.1248
  848SOL    HW2 2601   2.680   3.151   0.797 -1.6299 -1.0018 -0.2291
  849SOL     OW 2602   3.936   4.136   0.346  0.6479 -0.2573  0.9116
  849SOL    HW1 2603   3.859   4.080   0.347  2.0564 -2.2670  0.8531
  849SOL    HW2 2604   3.907   4.217   0.389 -1.5974 -0.7683  0.4594
  850SOL     OW 2605   2.762   2.284   2.965  0.5801  0.3873  0.2525
  850SOL    HW1 2606   2.796   2.315   2.881  0.2704 -0.9186 -0.3813
  850SOL    HW2 2607   2.684   2.337   2.981  0.6574  0.6661 -0.2672
  851SOL     OW 2608   2.330   3.851   2.057  0.4053 -0.0814  0.1823
  851SOL    HW1 2609   2.249   3.881   2.016  0.2405 -2.0437 -1.0682
  851SOL    HW2 2610   2.328   3.889   2.145 -2.9755 -1.8079  1.0083
  852SOL     OW 2611   2.571   0.773   2.963 -0.0347 -0.1015  0.4178
  852SOL    HW1 2612   2.622   0.844   3.002  1.4439 -0.1375 -1.3522
  852SOL    HW2 2613   2.491   0.770   3.016  0.0804  2.5312  0.8839
  853SOL     OW 2614   3.075   0.344   1.800 -0.0381 -0.6392 -0.1499
  853SOL    HW1 2615   3.118   0.392   1.871 -1.2266  1.3859 -0.7371
  853SOL    HW2 2616   3.070   0.406   1.728 -1.0691 -1.8542 -1.1829
  854SOL     OW 2617   1.755   3.394   4.972  0.3596  0.1099  0.1756
  854SOL    HW1 2618   1.679   3.446   4.944 -1.1194 -1.8251  0.3716
  854SOL    HW2 2619   1.718   3.330   5.033  2.2661 -0.5649  0.6723
  855SOL     OW 2620   4.544   2.745   4.176  0.2954  0.2253 -0.4970
  855SOL    HW1 2621   4.542   2.699   4.259 -0.6512  1.5739  0.2603
  855SOL    HW2 2622   4.480   2.699   4.121 -1.8867  1.5548  0.7984
  856SOL     OW 2623   1.686   2.025   3.408 -0.4085  0.5089 -0.0177
  856SOL    HW1 2624   1.761   2.042   3.351 -0.6047  0.8231 -0.1781
  856SOL    HW2 2625   1.612   2.014   3.348 -0.2924 -0.9301  0.0622
  857SOL     OW 2626   1.191   1.933   0.133  0.3988  0.2217 -0.0854
  857SOL    HW1 2627   1.255   1.863   0.146 -0.0902 -0.0849  0.8046
  857SOL    HW2 2628   1.119   1.911   0.193 -1.4293 -0.4740 -2.3862
  858SOL     OW 2629   2.204   2.820   1.591  0.0468  0.4084  0.1329
  858SOL    HW1 2630   2.129   2.805   1.648  0.0256  1.2450  0.3313
  858SOL    HW2 2631   2.229   2.911   1.607  1.0044  0.1887 -0.0492
  859SOL     OW 2632   1.602   1.774   3.510  0.0996 -0.3075  0.0384
  859SOL    HW1 2633   1.687   1.814   3.526 -0.7072  0.9814  1.3069
  859SOL    HW2 2634   1.562   1.829   3.442  1.3628 -2.6274 -2.8173
  860SOL     OW 2635   3.994   2.902   3.985  0.7416  0.1715 -0.3616
  860SOL    HW1 2636   4.058   2.864   3.925  0.1371 -0.0432 -0.8734
  860SOL    HW2 2637   3.910   2.868   3.957  0.4453  0.0346  0.6381
  861SOL     OW 2638   0.599   2.961   0.351 -0.7382  0.1584 -0.3584
  861SOL    HW1 2639   0.678   2.969   0.404 -1.5595  0.2001  0.9188
  861SOL    HW2 2640   0.612   2.882   0.299  0.1804  0.2311 -0.2495
  862SOL     OW 2641   4.067   4.514   0.652 -0.7116 -0.1700  0.7141
  862SOL    HW1 2642   4.151   4.523   0.606 -0.9592  0.3549  0.3676
  862SOL    HW2 2643   4.090   4.521   0.745 -0.0973 -2.0133  0.7422
  863SOL     OW 2644   2.150   4.380   4.409  1.0851 -0.1004 -0.7928
  863SOL    HW1 2645   2.186   4.362   4.495 -0.0626 -0.7192 -0.4222
  863SOL    HW2 2646   2.119   4.296   4.377  0.0870  0.3811 -1.1407
  864SOL     OW 2647   3.990   1.205   1.577 -0.0314  0.1050  0.1755
  864SOL    HW1 2648   4.032   1.264   1.639  2.1322 -1.7015  0.5270
  864SOL    HW2 2649   4.027   1.119   1.595 -1.1323 -0.9369 -2.0313
  865SOL     OW 2650   0.881   0.825   3.473 -0.2218 -0.4221 -0.2872
  865SOL    HW1 2651   0.909   0.907   3.434  0.6992 -1.1487 -1.2139
  865SOL    HW2 2652   0.789   0.815   3.445  0.6717 -1.4122 -3.2628
  866SOL     OW 2653   2.697   4.294   1.661 -0.3434 -0.5851  0.3806
  866SOL    HW1 2654   2.690   4.368   1.720  1.9241  0.2913 -0.3230
  866SOL    HW2 2655   2.614   4.248   1.668 -2.0489  2.3217  0.4313
  867SOL     OW 2656   4.594   2.709   1.336  0.0200  0.1875  0.0297
  867SOL    HW1 2657   4.513   2.736   1.379  0.0780 -0.8638  0.8388
  867SOL    HW2 2658   4.570   2.698   1.244 -1.4449 -2.5665  0.6417
  868SOL     OW 2659   2.959   2.985   2.424  0.1630  0.0649  0.2621
  868SOL    HW1 2660   2.961   2.935   2.342  0.5855 -0.2814  0.4781
  868SOL    HW2 2661   2.971   2.919   2.492 -1.9047  0.0996  0.7241
  869SOL     OW 2662   2.212   4.507   2.925 -0.1579  0.0370  0.4032
  869SOL    HW1 2663   2.155   4.446   2.879 -0.5577 -0.0215  0.9661
  869SOL    HW2 2664   2.156   4.548   2.991  0.1333  0.9248  0.1189
  870SOL     OW 2665   3.050   2.252  -0.011  0.2822 -0.1971  0.0847
  870SOL    HW1 2666   3.088   2.264   0.076  0.1800  1.4632 -0.0751
  870SOL    HW2 2667   2.972   2.198   0.004 -0.1459  0.6867  1.1362
  871SOL     OW 2668   4.712   0.282   4.580  0.3340 -0.2269  0.0923
  871SOL    HW1 2669   4.638   0.253   4.632  0.8785 -2.0188 -0.0689
  871SOL    HW2 2670   4.687   0.369   4.549 -1.3936 -0.5042  0.6049
  872SOL     OW 2671   1.529   1.384   3.953 -0.3204  0.1852  0.2392
  872SOL    HW1 2672   1.607   1.344   3.991  0.2362  0.3208 -0.7233
  872SOL    HW2 2673   1.534   1.362   3.860 -0.4413  1.7753 -0.1687
  873SOL     OW 2674   3.961   0.802   2.616 -0.3778  0.5759 -0.3454
  873SOL    HW1 2675   3.962   0.723   2.563 -1.0948  0.6363 -0.4545
  873SOL    HW2 2676   3.997   0.870   2.558  0.3714  0.3123 -0.2035
  874SOL     OW 2677   1.973   2.820   1.747 -0.0476  0.2051  0.1847
  874SOL    HW1 2678   2.030   2.851   1.817  1.0104 -0.4746 -0.3464
  874SOL    HW2 2679   1.895   2.876   1.753  0.4472  0.8198  1.2471
  875SOL     OW 2680   0.059   4.535   3.981  0.3611  0.1382  0.1505
  875SOL    HW1 2681   0.042   4.501   3.893 -0.7053 -0.8047  0.6953
  875SOL    HW2 2682   0.142   4.582   3.972  0.9360 -1.0244 -1.0734
  876SOL     OW 2683   2.187   2.023   3.083  0.0554  0.7578 -0.0512
  876SOL    HW1 2684   2.145   1.944   3.050 -0.0735  0.4376  0.8835
  876SOL    HW2 2685   2.280   2.009   3.067 -0.0026  0.6069 -0.2714
  877SOL     OW 2686   0.806   3.078   3.912 -0.6142 -0.1811 -0.3365
  877SOL    HW1 2687   0.867   3.019   3.957 -1.0344 -0.4875 -0.1634
  877SOL    HW2 2688   0.776   3.028   3.836  0.9824  0.7479 -1.6715
  878SOL     OW 2689   1.424   4.165   0.356  0.1610  0.0532 -0.2973
  878SOL    HW1 2690   1.386   4.181   0.270 -1.9004  1.8065  0.8371
  878SOL    HW2 2691   1.371   4.094   0.392 -0.5324  0.8745  0.3595
  879SOL     OW 2692   0.977   4.862   0.418  0.2912 -0.6511 -0.4246
  879SOL    HW1 2693   0.919   4.879   0.344  1.3442  1.9098 -0.7668
  879SOL    HW2 2694   0.926   4.890   0.495 -0.3502 -2.1867 -0.2457
  880SOL     OW 2695   4.954   0.649   2.965  0.1427  0.3223 -0.3194
  880SOL    HW1 2696   5.047   0.644   2.945  0.1740 -0.2422 -0.0362
  880SOL    HW2 2697   4.913   0.585   2.907  0.1791 -0.9835  1.0247
  881SOL     OW 2698   4.415   0.404   1.938 -0.0846  0.1130 -0.8238
  881SOL    HW1 2699   4.391   0.489   1.974 -0.0653  0.3118 -1.2672
  881SOL    HW2 2700   4.359   0.394   1.861  0.1497 -0.1240 -0.9639
  882SOL     OW 2701   0.298   3.113   2.755  0.1719  0.2856 -0.0728
  882SOL    HW1 2702   0.288   3.167   2.834  0.0440 -0.3303  0.3333
  882SOL    HW2 2703   0.357   3.164   2.700  1.2451  0.1570  0.9304
  883SOL     OW 2704   0.227   0.959   1.579  0.1796 -0.3123  0.1230
  883SOL    HW1 2705   0.221   1.039   1.527 -0.1072 -0.7428 -0.5255
  883SOL    HW2 2706   0.300   0.974   1.638  0.2329  0.3627 -0.1051
  884SOL     OW 2707   3.524   4.026   1.955 -0.1695 -0.0635 -0.1876
  884SOL    HW1 2708   3.435   4.056   1.934 -0.1012  0.9359  0.8773
  884SOL    HW2 2709   3.512   3.936   1.987 -1.1391  0.8174  2.1872
  885SOL     OW 2710   3.724   1.728   0.878 -0.1629 -0.3565 -0.0501
  885SOL    HW1 2711   3.705   1.799   0.939  0.3633 -1.7637  1.8796
  885SOL    HW2 2712   3.642   1.715   0.830 -0.3668  1.2850 -0.2000
  886SOL     OW 2713   4.099   4.961   1.447  0.0753 -0.1448  0.3495
  886SOL    HW1 2714   4.031   4.990   1.387 -0.0788 -1.4505 -0.1383
  886SOL    HW2 2715   4.057   4.893   1.501  0.5834  0.0740  1.0367
  887SOL     OW 2716   0.925   2.989   2.190 -0.0183  0.6121 -0.1858
  887SOL    HW1 2717   0.943   2.989   2.284  1.7335 -0.2725 -0.4687
  887SOL    HW2 2718   0.938   3.080   2.164 -0.3079  0.8243  0.3839
  888SOL     OW 2719   4.510   4.396   1.151 -0.2549  0.3658  0.3535
  888SOL    HW1 2720   4.476   4.336   1.085 -1.1789  0.0525  1.0955
  888SOL    HW2 2721   4.593   4.358   1.178 -0.3810 -0.0710  0.1321
  889SOL     OW 2722   3.887   4.397   0.410  0.4934  0.2521 -0.4031
  889SOL    HW1 2723   3.976   4.421   0.386  0.5774 -1.7374 -2.3833
  889SOL    HW2 2724   3.834   4.426   0.336 -0.2582 -0.1219 -0.0211
  890SOL     OW 2725   2.697   2.496   4.840  0.9360  0.1127  0.4394
  890SOL    HW1 2726   2.659   2.490   4.927 -0.3768  0.8223 -0.0564
  890SOL    HW2 2727   2.705   2.405   4.810 -0.0214 -0.0619  0.7104
  891SOL     OW 2728   3.430   2.214   2.101  0.0502 -0.5207  0.6051
  891SOL    HW1 2729   3.524   2.204   2.110  0.0729 -1.3888 -0.3996
  891SOL    HW2 2730   3.417   2.246   2.012 -0.6295 -0.9817  0.5267
  892SOL     OW 2731   0.482   4.009   2.155  0.8175  0.2848 -0.8256
  892SOL    HW1 2732   0.393   4.027   2.125  1.5750  1.7019 -2.3030
  892SOL    HW2 2733   0.478   3.919   2.187 -0.6138 -0.5132 -3.0385
  893SOL     OW 2734   2.668   1.964   1.722  0.4009 -1.7702  0.3496
  893SOL    HW1 2735   2.682   1.956   1.628 -1.8856 -2.0179 -0.0201
  893SOL    HW2 2736   2.678   1.875   1.756  1.8066 -1.5915  0.4762
  894SOL     OW 2737   3.648   3.481   2.090 -0.3596  0.0849 -0.1106
  894SOL    HW1 2738   3.690   3.487   2.005 -0.6921  1.3821 -0.1999
  894SOL    HW2 2739   3.719   3.462   2.151 -0.0959 -0.6644 -0.6326
  895SOL     OW 2740   2.556   2.449   3.002  0.4107  0.0824 -0.0318
  895SOL    HW1 2741   2.541   2.508   3.076 -0.2666 -0.6903  0.4616
  895SOL    HW2 2742   2.468   2.431   2.968  0.5208 -1.4123  0.4417
  896SOL     OW 2743   1.762   3.347   4.171  0.3788 -0.6236 -0.0600
  896SOL    HW1 2744   1.706   3.422   4.193  0.9187  0.3139 -1.6760
  896SOL    HW2 2745   1.725   3.314   4.089  1.0688 -1.1689 -0.1587
  897SOL     OW 2746   2.690   2.645   2.351 -0.1923  0.6398 -0.9421
  897SOL    HW1 2747   2.742   2.622   2.429 -0.3558 -0.2485 -1.0795
  897SOL    HW2 2748   2.608   2.678   2.386 -0.4365 -0.1721 -0.7314
  898SOL     OW 2749   4.475   4.327   1.931  0.1253  0.6335  0.0960
  898SOL    HW1 2750   4.544   4.376   1.977  0.3612 -0.4051  0.8748
  898SOL    HW2 2751   4.520   4.250   1.895 -0.4212  0.5142 -0.3459
  899SOL     OW 2752   2.138   0.216   1.136  0.2224 -0.0096 -0.5953
  899SOL    HW1 2753   2.169   0.263   1.214  3.2055  0.6154 -2.0289
  899SOL    HW2 2754   2.065   0.269   1.103  0.3198  0.8752  0.5546
  900SOL     OW 2755   3.839   4.836   3.278 -0.0409 -1.0579 -0.1079
  900SOL    HW1 2756   3.932   4.855   3.291 -0.5807  1.5450  0.4466
  900SOL    HW2 2757   3.835   4.794   3.192  1.5803 -0.6420 -0.4231
  901SOL     OW 2758   3.277   0.020   3.100 -0.5410  0.5139 -0.3485
  901SOL    HW1 2759   3.239   0.105   3.079  0.8646  1.1218 -0.4839
  901SOL    HW2 2760   3.284   0.018   3.195  2.4339  1.9510 -0.4365
  902SOL     OW 2761   1.654   3.105   0.984 -0.0361  0.4073  0.1385
  902SOL    HW1 2762   1.607   3.066   0.911  0.2067  0.6584 -0.1545
  902SOL    HW2 2763   1.692   3.185   0.948  0.2445  0.4334  0.4882
  903SOL     OW 2764   0.915   0.526   2.669  0.2391 -0.0017  0.4969
  903SOL    HW1 2765   0.983   0.492   2.726 -1.4417 -1.6728  1.6211
  903SOL    HW2 2766   0.848   0.560   2.729 -1.9925 -2.6083 -0.3072
  904SOL     OW 2767   4.791   0.241   2.202 -0.0161  0.0920 -0.2716
  904SOL    HW1 2768   4.864   0.301   2.183 -0.5959  1.1346  0.6909
  904SOL    HW2 2769   4.714   0.298   2.209 -0.5409 -0.7193  0.9637
  905SOL     OW 2770   4.151   3.883   1.252 -0.0921 -0.0630 -0.2426
  905SOL    HW1 2771   4.227   3.906   1.305  0.8420 -2.0174 -0.6078
  905SOL    HW2 2772   4.076   3.901   1.307  0.8435 -2.4486  2.0253
  906SOL     OW 2773   0.804   4.044   0.139  0.2967  0.6082  0.5698
  906SOL    HW1 2774   0.812   4.093   0.221 -0.4330  1.5375  0.1105
  906SOL    HW2 2775   0.742   3.974   0.159 -0.1563  1.0451  0.7346
  907SOL     OW 2776   2.316   2.723   1.091  0.2430 -0.1465  0.0549
  907SOL    HW1 2777   2.364   2.801   1.119 -0.3858  0.2542  0.0194
  907SOL    HW2 2778   2.382   2.653   1.092  0.8916  0.4473 -0.2511
  908SOL     OW 2779   3.722   2.694   4.559 -0.1207  0.1050  0.6038
  908SOL    HW1 2780   3.751   2.605   4.576 -0.6520 -0.4208 -1.0638
  908SOL    HW2 2781   3.635   2.684   4.520 -0.2151  1.3570  0.4527
  909SOL     OW 2782   4.652   1.253   4.421 -0.2755 -0.3346  0.4359
  909SOL    HW1 2783   4.575   1.270   4.475 -1.3754 -0.7998 -0.9292
  909SOL    HW2 2784   4.726   1.259   4.481 -1.2216  1.6990  1.4907
  910SOL     OW 2785   0.689   1.711   4.085  0.4689 -0.4881  0.9331
  910SOL    HW1 2786   0.736   1.633   4.058  1.7735  0.4654  0.3335
  910SOL    HW2 2787   0.604   1.704   4.041  0.5324 -1.5970  0.9683
  911SOL     OW 2788   3.390   3.884   2.557  0.7045  0.0088  0.4734
  911SOL    HW1 2789   3.361   3.947   2.623 -1.2366 -1.3954  1.0698
  911SOL    HW2 2790   3.475   3.854   2.589  1.1022  1.4061  0.8069
  912SOL     OW 2791   2.144   4.266   2.071 -0.1263  0.6092 -0.1606
  912SOL    HW1 2792   2.143   4.274   1.976 -0.7154  1.0259 -0.1227
  912SOL    HW2 2793   2.060   4.301   2.100 -1.1580 -1.9860  0.3264
  913SOL     OW 2794   0.743   0.829   4.147 -0.0570  0.4971  0.0021
  913SOL    HW1 2795   0.745   0.838   4.242  1.1165  0.1798  0.0209
  913SOL    HW2 2796   0.659   0.867   4.121 -0.2111  0.9534  1.1225
  914SOL     OW 2797   0.287   0.281   1.450 -0.3344  0.3022 -0.2116
  914SOL    HW1 2798   0.228   0.205   1.457  1.4393 -1.2400 -0.9694
  914SOL    HW2 2799   0.318   0.295   1.540 -0.2753 -0.1952 -0.1514
  915SOL     OW 2800   3.521   1.515   0.674  0.1834  0.2750  0.3170
  915SOL    HW1 2801   3.466   1.438   0.687  0.1533  0.2856  0.2487
  915SOL    HW2 2802   3.470   1.587   0.709 -0.3675  0.4765 -0.8782
  916SOL     OW 2803   0.502   2.970   0.011 -0.2043  1.1954 -0.2992
  916SOL    HW1 2804   0.489   2.891   0.064 -0.3788  2.2082  1.2398
  916SOL    HW2 2805   0.588   2.958  -0.029  0.1765  0.6207  0.6480
  917SOL     OW 2806   4.471   0.765   0.801  0.4704  0.1263 -0.4994
  917SOL    HW1 2807   4.531   0.812   0.860  0.3107 -2.6661  2.1199
  917SOL    HW2 2808   4.460   0.679   0.841 -2.7286 -0.6516 -2.6660
  918SOL     OW 2809   1.327   3.360   3.960  0.0936  0.1015 -0.7351
  918SOL    HW1 2810   1.303   3.268   3.947 -1.3627  0.5194 -1.2945
  918SOL    HW2 2811   1.275   3.407   3.894 -1.6074  1.6063  1.5094
  919SOL     OW 2812   3.401   3.285   2.527  0.3562 -0.2471 -0.3352
  919SOL    HW1 2813   3.401   3.327   2.441 -0.0986  0.0792 -0.1824
  919SOL    HW2 2814   3.367   3.353   2.586 -0.1397 -0.7449 -0.0396
  920SOL     OW 2815   2.461   3.394   3.714 -0.0192 -0.7956  0.0620
  920SOL    HW1 2816   2.523   3.342   3.765  0.5605 -0.8403 -0.6804
  920SOL    HW2 2817   2.399   3.427   3.779  0.8527 -0.6361  0.8365
  921SOL     OW 2818   3.042   4.154   0.860  0.7371 -0.1162 -0.2953
  921SOL    HW1 2819   2.996   4.238   0.856  1.4292  0.3428  0.9006
  921SOL    HW2 2820   3.054   4.129   0.768 -0.1373  0.7097 -0.6586
  922SOL     OW 2821   2.534   0.432   4.368  0.0658 -0.0400 -0.2900
  922SOL    HW1 2822   2.540   0.524   4.340 -0.3550 -0.3737 -1.5239
  922SOL    HW2 2823   2.585   0.383   4.305  0.8723 -0.6083  0.7672
  923SOL     OW 2824   2.002   1.458   1.677  0.5071  0.1858  0.6255
  923SOL    HW1 2825   1.940   1.520   1.715 -0.4971 -0.3637 -0.0906
  923SOL    HW2 2826   2.054   1.511   1.615 -0.6398  0.2511 -0.3179
  924SOL     OW 2827   1.466   4.167   0.719  0.8594  0.3844  0.7103
  924SOL    HW1 2828   1.453   4.133   0.808  0.6496 -1.1913  0.0963
  924SOL    HW2 2829   1.379   4.198   0.693 -0.5932 -4.2229 -0.9419
  925SOL     OW 2830   1.293   0.004   1.672 -0.4960 -0.0975 -0.3620
  925SOL    HW1 2831   1.285   0.087   1.718 -1.3914 -0.0428 -0.6077
  925SOL    HW2 2832   1.258   0.021   1.585 -2.1257 -1.0955  0.0492
  926SOL     OW 2833   4.106   2.120   2.461  0.4667  0.4351  0.6501
  926SOL    HW1 2834   4.138   2.048   2.515 -2.2582 -1.1152  0.3832
  926SOL    HW2 2835   4.086   2.080   2.377  0.0243  1.7860  0.0856
  927SOL     OW 2836   2.062   4.327   3.674  0.1005 -0.3011 -0.0182
  927SOL    HW1 2837   2.055   4.309   3.768  0.9592  0.0256  0.1156
  927SOL    HW2 2838   2.009   4.406   3.662 -2.4850 -1.9562 -0.3615
  928SOL     OW 2839   3.430   4.437   2.382  0.1643 -0.7122 -0.5557
  928SOL    HW1 2840   3.381   4.372   2.433 -0.1527 -0.0642 -0.0236
  928SOL    HW2 2841   3.372   4.457   2.308 -0.6934  0.5248  0.4077
  929SOL     OW 2842   4.008   3.480   4.024 -0.6081 -0.0326 -0.2053
  929SOL    HW1 2843   4.035   3.388   4.013  1.1188  0.3922  0.0986
  929SOL    HW2 2844   4.014   3.517   3.936  3.1069  0.8221  0.2313
  930SOL     OW 2845   1.218   4.283   0.704  0.2964 -0.3366 -0.0074
  930SOL    HW1 2846   1.216   4.370   0.663  2.0958  0.1218  0.7774
  930SOL    HW2 2847   1.151   4.233   0.657  0.7138  0.8358 -1.9727
  931SOL     OW 2848   2.268   4.476   2.303 -0.3893 -0.2594  0.6074
  931SOL    HW1 2849   2.305   4.418   2.370 -0.1589 -0.0966  0.6228
  931SOL    HW2 2850   2.273   4.425   2.222  0.7252  0.0993  0.4383
  932SOL     OW 2851   3.420   2.043   2.482 -0.5825 -0.6459  0.1958
  932SOL    HW1 2852   3.468   2.106   2.428 -1.5624  0.6154  0.7577
  932SOL    HW2 2853   3.348   2.014   2.427 -0.9608 -0.1704  0.4305
  933SOL     OW 2854   0.279   1.514   0.089  0.2560  0.4178  0.1344
  933SOL    HW1 2855   0.307   1.425   0.069  0.7835  0.1923  1.7886
  933SOL    HW2 2856   0.285   1.560   0.005  2.4331 -0.4580 -0.2575
  934SOL     OW 2857   1.436   4.025   0.954 -0.4908 -0.6569 -0.1135
  934SOL    HW1 2858   1.343   4.021   0.931 -0.6853 -0.7556  0.6793
  934SOL    HW2 2859   1.457   3.936   0.983  0.2104 -1.0144 -1.6059
  935SOL     OW 2860   3.792   3.453   2.662  0.2100  0.0342  0.5848
  935SOL    HW1 2861   3.756   3.365   2.674  2.2895 -0.4906  3.8757
  935SOL    HW2 2862   3.884   3.439   2.639  0.2280  1.4079 -0.3285
  936SOL     OW 2863   4.164   2.303   0.688 -0.2662  0.2854 -0.3883
  936SOL    HW1 2864   4.116   2.384   0.672 -1.6144 -0.7122 -1.6787
  936SOL    HW2 2865   4.205   2.283   0.604  2.9131  1.3383  0.7865
  937SOL     OW 2866   1.259   1.559   0.887  0.0637  0.1353 -0.3215
  937SOL    HW1 2867   1.183   1.500   0.892  1.4342 -1.9988 -2.3548
  937SOL    HW2 2868   1.287   1.569   0.978 -1.6786 -0.3286  0.3163
  938SOL     OW 2869   0.019   4.640   1.004  0.2746  0.2246 -0.3449
  938SOL    HW1 2870   0.097   4.588   1.027  0.1136  0.6249  1.2053
  938SOL    HW2 2871  -0.054   4.594   1.046 -0.2294  0.2607 -1.1707
  939SOL     OW 2872   2.276   1.420   4.407  0.1195 -0.5280 -0.1484
  939SOL    HW1 2873   2.288   1.483   4.478 -0.9313  0.7765 -1.0576
  939SOL    HW2 2874   2.359   1.421   4.360  0.0240  0.4443 -0.3221
  940SOL     OW 2875   3.481   2.223   3.191  0.2301 -0.5601 -0.1723
  940SOL    HW1 2876   3.390   2.228   3.220  0.5148 -1.0973  0.8471
  940SOL    HW2 2877   3.486   2.141   3.142  0.3915 -1.0525  0.6463
  941SOL     OW 2878   2.538   1.588   0.883 -0.4163  0.0051 -0.4281
  941SOL    HW1 2879   2.568   1.664   0.834 -0.4629 -0.1777 -0.7407
  941SOL    HW2 2880   2.508   1.526   0.816 -2.6723  0.6559 -0.1310
  942SOL     OW 2881   1.244   4.626   4.221  0.1526 -0.1181  0.0703
  942SOL    HW1 2882   1.194   4.702   4.191 -0.2959 -0.7417 -0.8143
  942SOL    HW2 2883   1.334   4.656   4.224  0.0428  0.3185 -0.7251
  943SOL     OW 2884   1.372   1.109   2.940 -0.1984 -0.1617  0.3069
  943SOL    HW1 2885   1.349   1.040   2.878  0.1261 -0.0626  0.0744
  943SOL    HW2 2886   1.397   1.184   2.885  0.0590 -0.0635  0.5559
  944SOL     OW 2887   4.690   3.462   1.599  0.1546 -0.1589 -0.3146
  944SOL    HW1 2888   4.651   3.513   1.670 -1.6384  0.5933 -1.7422
  944SOL    HW2 2889   4.757   3.409   1.641  0.1013  1.2517  1.7056
  945SOL     OW 2890   3.473   2.571   1.748 -0.3069 -0.2120 -1.2656
  945SOL    HW1 2891   3.488   2.477   1.746 -0.5222 -0.2394 -2.1665
  945SOL    HW2 2892   3.461   2.592   1.840  0.7652 -0.8974 -0.9576
  946SOL     OW 2893   1.747   2.924   1.962 -0.7386 -0.1339 -0.1716
  946SOL    HW1 2894   1.764   2.830   1.960  1.2589  0.1863 -0.4471
  946SOL    HW2 2895   1.725   2.947   1.872 -0.2689 -0.1781 -0.2968
  947SOL     OW 2896   1.268   2.562   2.460 -0.3806  0.1675  0.0300
  947SOL    HW1 2897   1.207   2.518   2.520 -1.0823 -0.8466 -1.3469
  947SOL    HW2 2898   1.254   2.518   2.376 -0.5406  2.5310 -1.2707
  948SOL     OW 2899   0.286   3.198   1.034  0.3548  0.4961  0.1751
  948SOL    HW1 2900   0.349   3.264   1.063  0.7157 -0.6709  2.2259
  948SOL    HW2 2901   0.209   3.211   1.090 -0.3799  0.4520 -0.7844
  949SOL     OW 2902   2.975   3.556   4.615 -0.1284 -0.6470  0.2513
  949SOL    HW1 2903   3.017   3.472   4.601  0.5007 -0.1523 -0.9953
  949SOL    HW2 2904   3.048   3.616   4.632 -0.4682 -0.1217 -0.1158
  950SOL     OW 2905   2.433   4.074   3.043  0.1232 -0.6781 -0.2514
  950SOL    HW1 2906   2.361   4.011   3.046  0.6755 -1.2812  2.0631
  950SOL    HW2 2907   2.390   4.160   3.048 -0.4675 -1.0213  0.7118
  951SOL     OW 2908   2.069   4.574   4.246  0.1728  0.0723 -0.0655
  951SOL    HW1 2909   2.084   4.511   4.316  0.2219  1.4939  1.2519
  951SOL    HW2 2910   2.121   4.650   4.271  0.5405  0.4597 -1.8946
  952SOL     OW 2911   0.225   2.497   3.856 -0.9281 -0.4316 -0.0184
  952SOL    HW1 2912   0.202   2.572   3.800 -1.3913  1.9561  3.0853
  952SOL    HW2 2913   0.142   2.470   3.896 -0.3067 -0.4017  1.3570
  953SOL     OW 2914   1.071   2.424   3.495  0.1142  0.4587 -0.2425
  953SOL    HW1 2915   1.029   2.488   3.553 -3.2026 -0.1082 -1.7865
  953SOL    HW2 2916   1.063   2.341   3.543 -0.0202  0.4475 -0.2828
  954SOL     OW 2917   1.423   0.573   2.820  0.0181 -0.6223 -0.2916
  954SOL    HW1 2918   1.498   0.632   2.824  0.2750 -0.9956  2.5653
  954SOL    HW2 2919   1.459   0.487   2.837 -0.8825 -0.9999 -0.2141
  955SOL     OW 2920   3.266   1.437   3.066  0.1416  0.3773 -0.4004
  955SOL    HW1 2921   3.319   1.494   3.123  0.3450 -1.9397  1.9246
  955SOL    HW2 2922   3.324   1.363   3.046 -1.1132 -0.5916 -0.5785
  956SOL     OW 2923   4.247   1.667   3.751 -0.0075  0.4023  0.0699
  956SOL    HW1 2924   4.340   1.677   3.771  0.2435 -0.5200 -0.5808
  956SOL    HW2 2925   4.205   1.662   3.837  0.7744 -1.1103  0.3905
  957SOL     OW 2926   3.530   3.092   3.996 -0.1747  0.3801  0.3089
  957SOL    HW1 2927   3.600   3.156   3.982 -0.5308  0.6997 -0.0453
  957SOL    HW2 2928   3.459   3.143   4.036  0.3767 -0.2632  2.2046
  958SOL     OW 2929   2.753   2.414   3.964  0.2374  0.2299 -0.0014
  958SOL    HW1 2930   2.724   2.323   3.955  2.2009 -0.5431  1.0461
  958SOL    HW2 2931   2.778   2.440   3.876 -0.3688 -0.2144 -0.3146
  959SOL     OW 2932   1.558   4.214   2.948  0.1109  0.3293 -0.2140
  959SOL    HW1 2933   1.471   4.253   2.950  0.3376  0.8704 -0.4930
  959SOL    HW2 2934   1.611   4.276   2.897  0.2232 -0.8968 -1.6866
  960SOL     OW 2935   1.790   3.636   0.222 -0.1639 -0.0030  0.1590
  960SOL    HW1 2936   1.713   3.638   0.164 -0.9072 -0.6308  1.0978
  960SOL    HW2 2937   1.860   3.601   0.167 -0.7462 -0.1834 -0.4860
  961SOL     OW 2938   0.217   4.790   3.293 -0.0267 -0.0541  0.5283
  961SOL    HW1 2939   0.162   4.851   3.343  0.2182 -0.8851  1.8728
  961SOL    HW2 2940   0.156   4.741   3.239 -0.3756  0.4283  0.4792
  962SOL     OW 2941   3.032   1.732   2.217 -0.1042 -0.1041 -0.0162
  962SOL    HW1 2942   3.030   1.637   2.224  1.5937 -0.0867  1.5238
  962SOL    HW2 2943   2.944   1.760   2.241 -0.8192 -1.2853 -1.1329
  963SOL     OW 2944   3.325   4.499   0.782 -0.2961 -0.2319 -0.5082
  963SOL    HW1 2945   3.296   4.419   0.738 -1.6303  0.7905 -1.6149
  963SOL    HW2 2946   3.246   4.553   0.786 -0.0966 -0.0032  2.6531
  964SOL     OW 2947   2.938   2.281   3.238  0.3760 -0.0267  0.2844
  964SOL    HW1 2948   2.892   2.303   3.157  0.8903  2.1653  0.5325
  964SOL    HW2 2949   2.882   2.216   3.280 -0.1166 -0.9066 -1.5841
  965SOL     OW 2950   0.503   1.883   0.804  0.1119 -0.4106 -0.1634
  965SOL    HW1 2951   0.522   1.813   0.867  2.1343 -0.4321 -0.7351
  965SOL    HW2 2952   0.439   1.846   0.745 -0.4686 -1.0172  0.8227
  966SOL     OW 2953   1.773   4.043   2.946 -0.0119  0.3572 -0.1478
  966SOL    HW1 2954   1.730   3.960   2.927 -0.4421  0.8905 -1.6377
  966SOL    HW2 2955   1.701   4.106   2.956  0.3371  0.7197  0.1537
  967SOL     OW 2956   2.556   1.816   2.084  0.1413 -0.2388  0.5158
  967SOL    HW1 2957   2.475   1.769   2.101 -0.0869 -1.1116 -2.4233
  967SOL    HW2 2958   2.585   1.784   1.999  1.6731  2.6530 -0.1991
  968SOL     OW 2959   3.495   1.577   2.326 -0.5835  0.0968  0.8002
  968SOL    HW1 2960   3.464   1.577   2.236 -0.5616  0.6899  0.7892
  968SOL    HW2 2961   3.422   1.611   2.378 -0.9526 -1.1621  1.1459
  969SOL     OW 2962   2.195   1.050   3.949 -0.2482  0.7393 -0.5581
  969SOL    HW1 2963   2.262   1.099   3.902  1.6740 -1.6094 -0.3954
  969SOL    HW2 2964   2.202   0.961   3.916 -2.2213  0.0687  0.6623
  970SOL     OW 2965   3.164   3.027   3.501 -0.1799  0.1324 -0.4606
  970SOL    HW1 2966   3.254   3.055   3.516 -0.1206 -0.8149  1.2219
  970SOL    HW2 2967   3.112   3.106   3.511  0.3357  0.4073  0.0627
  971SOL     OW 2968   4.775   2.961   3.376  0.0186 -0.1778 -0.2229
  971SOL    HW1 2969   4.707   3.021   3.344  0.2822  0.7202  0.8185
  971SOL    HW2 2970   4.854   3.016   3.382  0.3987 -0.7623  0.2361
  972SOL     OW 2971   2.282   2.659   4.244 -0.1349 -0.0960 -0.2400
  972SOL    HW1 2972   2.303   2.599   4.315  2.3147  2.9773  1.8572
  972SOL    HW2 2973   2.205   2.707   4.275  0.9152  1.2224  0.4379
  973SOL     OW 2974   4.770   1.618   2.464  0.2732  0.1844 -0.2573
  973SOL    HW1 2975   4.808   1.689   2.412 -0.2699 -0.6527 -1.8738
  973SOL    HW2 2976   4.677   1.640   2.471  0.2392  0.0088 -0.1331
  974SOL     OW 2977   4.905   3.301   1.526  0.1502 -0.4690 -0.1315
  974SOL    HW1 2978   4.975   3.314   1.461  0.0242 -1.1703 -0.4143
  974SOL    HW2 2979   4.923   3.216   1.564 -0.4825 -0.6027 -0.1216
  975SOL     OW 2980   1.304   4.370   4.966  0.3542  0.0363 -0.4445
  975SOL    HW1 2981   1.237   4.409   4.911  0.4304 -0.8603 -1.1844
  975SOL    HW2 2982   1.371   4.438   4.975  1.0475 -0.2931 -2.6886
  976SOL     OW 2983   2.242   4.217   4.616 -0.5030  0.0771  0.0275
  976SOL    HW1 2984   2.226   4.140   4.561 -1.6388  1.4557 -1.7054
  976SOL    HW2 2985   2.336   4.219   4.628 -0.3287 -0.8794 -0.9790
  977SOL     OW 2986   4.319   1.945   2.656  0.4794  0.4068 -0.5457
  977SOL    HW1 2987   4.284   1.893   2.728  1.0709 -0.7890 -1.0939
  977SOL    HW2 2988   4.331   1.882   2.584  0.4144  1.4600 -1.5104
  978SOL     OW 2989   3.270   0.525   4.766 -0.0806  0.0393  0.2991
  978SOL    HW1 2990   3.199   0.534   4.703  0.7666 -0.0174 -0.6938
  978SOL    HW2 2991   3.338   0.476   4.719  1.2188  1.4019  0.6874
  979SOL     OW 2992   2.098   0.564   3.714 -0.1348 -0.0644 -0.2384
  979SOL    HW1 2993   2.024   0.554   3.653 -1.1575 -0.3991  1.0185
  979SOL    HW2 2994   2.095   0.485   3.768  1.1491 -0.0727 -0.1559
  980SOL     OW 2995   3.868   0.166   0.107 -0.0904  0.2557  0.0111
  980SOL    HW1 2996   3.803   0.230   0.079 -0.8545 -0.7748 -0.6578
  980SOL    HW2 2997   3.862   0.096   0.041  1.0501 -0.2823  0.4514
  981SOL     OW 2998   2.742   0.212   3.651 -0.2958 -0.0485  0.6221
  981SOL    HW1 2999   2.711   0.297   3.682 -1.2850 -0.5489  1.0647
  981SOL    HW2 3000   2.793   0.177   3.724  0.3356  0.2740  0.3388
  982SOL     OW 3001   3.192   3.696   4.657  0.5168  0.2183 -0.0311
  982SOL    HW1 3002   3.284   3.693   4.683 -0.0649 -1.3064  2.1309
  982SOL    HW2 3003   3.188   3.767   4.593  3.0554  0.7838  0.3143
  983SOL     OW 3004   3.038   0.039   2.257  0.1888  0.2934 -0.6790
  983SOL    HW1 3005   3.033   0.123   2.211 -0.2212  0.8654  0.3772
  983SOL    HW2 3006   3.112  -0.006   2.217  1.3157  1.7517 -0.3308
  984SOL     OW 3007   0.767   2.899   1.190 -0.1401  0.0447  0.1197
  984SOL    HW1 3008   0.717   2.981   1.191  1.0493  0.7929  0.8934
  984SOL    HW2 3009   0.706   2.834   1.155 -0.9331  1.3605 -1.0352
  985SOL     OW 3010   0.243   1.052   4.695  0.2865  0.0008  0.6668
  985SOL    HW1 3011   0.325   1.102   4.700  0.6757 -0.2668 -1.8163
  985SOL    HW2 3012   0.221   1.050   4.602 -1.7894 -1.1844  1.1066
  986SOL     OW 3013   1.111   0.788   3.724  0.2251  0.0631  0.2626
  986SOL    HW1 3014   1.105   0.833   3.640  1.8531  1.4651  0.8269
  986SOL    HW2 3015   1.152   0.704   3.704 -3.0934 -1.4546 -0.8460
  987SOL     OW 3016   1.678   2.521   4.251 -0.7552  0.8713  0.3258
  987SOL    HW1 3017   1.586   2.543   4.268 -1.2765 -2.8182  4.0018
  987SOL    HW2 3018   1.722   2.538   4.335  1.4622  0.5544 -0.7149
  988SOL     OW 3019   3.504   0.327   2.804  0.1877  0.1690 -0.2350
  988SOL    HW1 3020   3.495   0.233   2.788 -0.6736  0.1713  0.1578
  988SOL    HW2 3021   3.442   0.345   2.875  0.1786  1.0723 -0.4569
  989SOL     OW 3022   4.642   4.623   3.159 -0.3819  0.9155 -0.2208
  989SOL    HW1 3023   4.630   4.594   3.069  1.3031 -0.8037  0.0347
  989SOL    HW2 3024   4.556   4.616   3.199 -0.7466 -0.2907 -1.1817
  990SOL     OW 3025   1.617   2.508   2.212 -0.5015  0.2821  0.2144
  990SOL    HW1 3026   1.594   2.431   2.159 -0.3773  0.6885 -0.4380
  990SOL    HW2 3027   1.607   2.478   2.302 -1.1455 -0.2956 -0.0366
  991SOL     OW 3028   1.979   1.353   3.317  0.0364  0.8457  0.0604
  991SOL    HW1 3029   2.004   1.425   3.259 -0.2134  2.0029  1.3116
  991SOL    HW2 3030   1.898   1.383   3.359 -0.1540 -0.2327  0.5114
  992SOL     OW 3031   2.223   3.238   3.952 -0.3022  0.3382 -0.0435
  992SOL    HW1 3032   2.285   3.191   3.896 -1.7920 -0.9471 -0.7122
  992SOL    HW2 3033   2.173   3.168   3.994 -0.0228  1.3122  1.9842
  993SOL     OW 3034   3.648   1.047   3.274  0.0891  0.0850 -0.3730
  993SOL    HW1 3035   3.685   1.134   3.292 -0.9940  0.4605  0.1107
  993SOL    HW2 3036   3.702   1.012   3.203  1.3685  0.6075  0.3081
  994SOL     OW 3037   1.632   1.747   4.580 -0.4058 -0.4591  0.2990
  994SOL    HW1 3038   1.615   1.702   4.662 -0.7147  0.8564  0.9889
  994SOL    HW2 3039   1.546   1.777   4.550  0.0637  2.5276  1.6057
  995SOL     OW 3040   0.472   1.374   1.583  0.3626 -0.1674 -0.1937
  995SOL    HW1 3041   0.430   1.299   1.624  0.6538 -0.9769 -1.3261
  995SOL    HW2 3042   0.496   1.343   1.496  1.2166  0.9967 -0.3915
  996SOL     OW 3043   3.722   1.911   4.288  0.0711  0.5315  0.1746
  996SOL    HW1 3044   3.731   1.833   4.232 -2.3409  1.4061 -1.6077
  996SOL    HW2 3045   3.745   1.984   4.231  0.4930  1.2737  1.2719
  997SOL     OW 3046   2.207   2.539   4.496  0.3289 -0.3747 -0.7178
  997SOL    HW1 3047   2.150   2.485   4.442  0.3280 -1.7627  0.6317
  997SOL    HW2 3048   2.243   2.480   4.561  1.5180  0.9487 -0.1131
  998SOL     OW 3049   3.402   4.203   3.863 -0.1512  0.0060  0.4077
  998SOL    HW1 3050   3.377   4.197   3.771 -0.3638  1.2219  0.3730
  998SOL    HW2 3051   3.444   4.119   3.882 -2.4285 -1.3215 -0.0590
  999SOL     OW 3052   2.510   3.312   4.352  0.2221  0.0708  0.1529
  999SOL    HW1 3053   2.501   3.376   4.282 -1.2002 -0.9285 -0.6200
  999SOL    HW2 3054   2.481   3.229   4.314  1.0833 -0.8527  1.4133
 1000SOL     OW 3055   0.380   4.359   0.372  0.3328 -0.1102 -0.1891
 1000SOL    HW1 3056   0.369   4.415   0.296  0.3743 -1.1217 -0.9679
 1000SOL    HW2 3057   0.341   4.275   0.346 -0.2721 -0.2742  1.1574
 1001SOL     OW 3058   4.888   2.580   1.104  0.5793  0.7126 -0.0364
 1001SOL    HW1 3059   4.804   2.539   1.128  1.1692 -0.6490 -0.2143
 1001SOL    HW2 3060   4.868   2.630   1.025 -0.3077  1.3561  0.5670
 1002SOL     OW 3061   0.172   4.085   4.162 -0.1863 -0.2870 -0.1512
 1002SOL    HW1 3062   0.159   4.180   4.169  0.8011 -0.1921  0.5111
 1002SOL    HW2 3063   0.267   4.073   4.169 -0.1536 -1.2047 -1.6971
 1003SOL     OW 3064   0.534   2.632   3.102 -0.3147 -0.8331  0.2339
 1003SOL    HW1 3065   0.449   2.596   3.078 -1.8167  2.3428  0.3107
 1003SOL    HW2 3066   0.572   2.662   3.020  0.7266 -2.0384  0.2293
 1004SOL     OW 3067   4.886   3.327   2.433  0.0951  0.0652  0.2304
 1004SOL    HW1 3068   4.812   3.291   2.384  0.6910 -0.4231 -0.3244
 1004SOL    HW2 3069   4.909   3.259   2.496  1.5667 -0.7971 -1.1792
 1005SOL     OW 3070   2.406   4.730   2.545 -0.1149 -0.7825  0.0429
 1005SOL    HW1 3071   2.381   4.774   2.626 -2.3814 -3.5882  1.0075
 1005SOL    HW2 3072   2.497   4.703   2.560 -0.0180  0.0137  1.0114
 1006SOL     OW 3073   2.178   0.907   1.730  0.0879 -0.1465 -0.3564
 1006SOL    HW1 3074   2.144   0.818   1.742 -1.3840  0.6163  1.6610
 1006SOL    HW2 3075   2.115   0.948   1.670 -0.6486  0.2363  0.6545
 1007SOL     OW 3076   0.992   2.297   2.458 -0.5187 -0.1797  0.6169
 1007SOL    HW1 3077   0.987   2.205   2.432  1.3315 -0.3081  0.6021
 1007SOL    HW2 3078   0.914   2.337   2.418 -1.8113 -1.8610  1.3177
 1008SOL     OW 3079   1.761   1.544   3.500  0.4480  0.0647 -0.2487
 1008SOL    HW1 3080   1.852   1.574   3.502  0.4611  0.0031  0.9655
 1008SOL    HW2 3081   1.711   1.620   3.473  0.8540  0.0805 -1.0006
 1009SOL     OW 3082   2.447   3.941   0.695 -0.1804 -0.5124  0.0175
 1009SOL    HW1 3083   2.371   3.998   0.686 -0.8260 -1.1930  0.9571
 1009SOL    HW2 3084   2.469   3.915   0.606 -1.7455 -1.1926 -0.2056
 1010SOL     OW 3085   3.934   3.272   0.394  0.0869 -0.1970 -0.6081
 1010SOL    HW1 3086   3.867   3.337   0.375 -0.8758 -0.6166  1.1529
 1010SOL    HW2 3087   3.885   3.193   0.418  1.2230 -0.9897 -0.8182
 1011SOL     OW 3088   2.995   3.853   0.376  0.1385 -0.1909  0.2799
 1011SOL    HW1 3089   2.913   3.902   0.368 -0.4872 -0.8183  2.1308
 1011SOL    HW2 3090   2.992   3.789   0.306 -0.6262  0.2575 -0.1123
 1012SOL     OW 3091   4.102   1.167   0.827 -0.1957  0.0068  0.2498
 1012SOL    HW1 3092   4.124   1.162   0.734 -0.1779 -0.2556  0.2685
 1012SOL    HW2 3093   4.016   1.208   0.828  0.0110  0.4525  0.1435
 1013SOL     OW 3094   2.022   1.440   2.435 -0.3441 -0.0406  0.0909
 1013SOL    HW1 3095   2.043   1.374   2.501  2.3141 -0.6759 -1.2586
 1013SOL    HW2 3096   2.000   1.518   2.486 -0.1318 -0.9874  1.7264
 1014SOL     OW 3097   3.144   5.003   2.776  0.2885 -0.4921 -0.4188
 1014SOL    HW1 3098   3.154   4.908   2.775 -1.0558 -0.6956  1.1687
 1014SOL    HW2 3099   3.088   5.022   2.700  1.0023 -0.8911 -1.0531
 1015SOL     OW 3100   4.915   0.294   1.604 -0.0684  0.6550 -0.3401
 1015SOL    HW1 3101   4.850   0.296   1.674  0.6989  0.1829  0.3902
 1015SOL    HW2 3102   4.993   0.336   1.640 -0.3979  2.6018 -1.7027
 1016SOL     OW 3103   2.826   0.192   1.486 -0.1563 -0.3896 -0.0209
 1016SOL    HW1 3104   2.899   0.132   1.500  0.0626 -0.4557 -1.2832
 1016SOL    HW2 3105   2.827   0.209   1.391 -2.4382 -1.2250 -0.2585
 1017SOL     OW 3106   0.845   4.589   4.506 -0.1922  0.3029  0.2285
 1017SOL    HW1 3107   0.806   4.544   4.581 -0.7268 -0.9877 -0.7846
 1017SOL    HW2 3108   0.939   4.591   4.526 -0.1703 -1.1051  0.4241
 1018SOL     OW 3109   2.756   0.485   4.184 -0.0572  0.1302  0.0127
 1018SOL    HW1 3110   2.791   0.420   4.245 -0.4810  0.3328  0.4713
 1018SOL    HW2 3111   2.830   0.505   4.125 -0.2012 -1.5482 -0.8033
 1019SOL     OW 3112   3.588   4.118   1.699  0.6133  0.3913 -0.0892
 1019SOL    HW1 3113   3.508   4.171   1.705 -0.6048 -0.7137 -3.8680
 1019SOL    HW2 3114   3.599   4.081   1.787 -0.9085  3.3995  1.5152
 1020SOL     OW 3115   1.350   0.888   2.446 -0.2849  0.6355  0.5685
 1020SOL    HW1 3116   1.380   0.887   2.355  1.1624  0.3976  1.0371
 1020SOL    HW2 3117   1.264   0.930   2.441 -1.4388 -1.6840 -1.2493
 1021SOL     OW 3118   4.510   2.553   4.382  0.0392  0.0503 -0.0621
 1021SOL    HW1 3119   4.500   2.459   4.373  3.1009 -0.2776 -1.0349
 1021SOL    HW2 3120   4.554   2.565   4.467 -1.0605  0.7172  0.4463
 1022SOL     OW 3121   1.408   4.583   0.320  0.1038 -0.0532 -0.4946
 1022SOL    HW1 3122   1.446   4.513   0.372  1.8505  0.2758 -1.2662
 1022SOL    HW2 3123   1.362   4.638   0.384  0.2096 -0.9208  0.3501
 1023SOL     OW 3124   3.500   4.714   4.057 -0.2303 -0.0005  0.2478
 1023SOL    HW1 3125   3.570   4.744   4.000  0.6538 -0.2459  1.1761
 1023SOL    HW2 3126   3.487   4.622   4.033  0.0967 -0.0849  0.3876
 1024SOL     OW 3127   0.066   3.153   3.645  0.1466  0.0518  0.1231
 1024SOL    HW1 3128   0.051   3.186   3.556  1.3646 -1.8062 -0.8518
 1024SOL    HW2 3129  -0.003   3.088   3.659 -0.6929  1.1126  0.9857
 1025SOL     OW 3130   4.706   4.111   2.110 -0.4971 -0.5251 -0.0365
 1025SOL    HW1 3131   4.757   4.190   2.091  2.1780 -2.1941 -0.4224
 1025SOL    HW2 3132   4.670   4.085   2.025  0.7100 -1.0096 -0.4311
 1026SOL     OW 3133   3.818   4.125   4.216  0.6219  0.0880 -0.2528
 1026SOL    HW1 3134   3.779   4.076   4.288 -1.4542  0.9316 -0.7174
 1026SOL    HW2 3135   3.901   4.157   4.251 -0.3710  0.5795  1.8335
 1027SOL     OW 3136   2.318   0.198   4.382 -0.0601 -0.4584  1.0209
 1027SOL    HW1 3137   2.365   0.134   4.328 -0.9080 -1.0040  0.9027
 1027SOL    HW2 3138   2.255   0.146   4.432  0.5460  0.0750  2.3778
 1028SOL     OW 3139   1.544   2.418   2.463  0.2726  0.4774 -0.3559
 1028SOL    HW1 3140   1.465   2.469   2.481 -0.1392 -0.2145 -0.1787
 1028SOL    HW2 3141   1.540   2.345   2.524  1.2992  0.6887 -0.0163
 1029SOL     OW 3142   2.432   4.134   0.211 -0.4539 -0.3029  0.4109
 1029SOL    HW1 3143   2.337   4.138   0.197 -0.2792 -1.6408 -1.6609
 1029SOL    HW2 3144   2.455   4.219   0.247 -2.1081  1.0292 -1.4846
 1030SOL     OW 3145   2.510   4.560   3.155 -0.2977  0.5342 -0.3524
 1030SOL    HW1 3146   2.576   4.572   3.223  0.0668 -0.2680 -0.5429
 1030SOL    HW2 3147   2.444   4.626   3.173  0.0304  0.6450  0.4968
 1031SOL     OW 3148   0.050   2.771   3.760 -0.1235  0.5230  0.2770
 1031SOL    HW1 3149  -0.000   2.852   3.747  1.2140  1.1363 -1.5473
 1031SOL    HW2 3150   0.051   2.759   3.855 -3.2358  0.7181  0.4368
 1032SOL     OW 3151   0.734   4.126   1.653 -0.6016 -0.4564 -0.2777
 1032SOL    HW1 3152   0.767   4.216   1.654  1.0006 -0.9931  1.3046
 1032SOL    HW2 3153   0.709   4.109   1.743 -0.7463 -1.6546 -0.5287
 1033SOL     OW 3154   3.568   2.434   4.584  0.3123  0.3360 -0.2153
 1033SOL    HW1 3155   3.656   2.427   4.621  0.3293 -1.0184 -0.4645
 1033SOL    HW2 3156   3.565   2.365   4.517 -1.1801 -0.1349  0.3025
 1034SOL     OW 3157   2.450   2.552   3.730  0.4687  0.5253  0.3204
 1034SOL    HW1 3158   2.425   2.640   3.704 -0.2851 -0.0962 -1.1928
 1034SOL    HW2 3159   2.478   2.560   3.821 -0.5054  2.1422  0.5007
 1035SOL     OW 3160   3.226   4.527   1.679 -0.4173 -0.2347 -0.0016
 1035SOL    HW1 3161   3.197   4.480   1.601  1.2778 -2.8277  0.7841
 1035SOL    HW2 3162   3.161   4.506   1.746  0.0438 -1.0266  0.2036
 1036SOL     OW 3163   4.865   0.888   0.530  0.2172 -0.1940  0.3897
 1036SOL    HW1 3164   4.800   0.826   0.560  1.2084 -2.1599 -1.2577
 1036SOL    HW2 3165   4.937   0.834   0.497  1.4475  1.8363 -0.4887
 1037SOL     OW 3166   2.867   0.087   3.842  0.2323 -0.4287 -0.0395
 1037SOL    HW1 3167   2.957   0.106   3.816 -0.0904  2.1435  0.4070
 1037SOL    HW2 3168   2.850  -0.001   3.808  2.4773 -0.4933 -1.2168
 1038SOL     OW 3169   4.038   1.136   4.901 -0.0459 -0.2277  0.0134
 1038SOL    HW1 3170   4.070   1.226   4.906  2.2916 -0.9826 -0.1350
 1038SOL    HW2 3171   4.040   1.115   4.808 -0.3165 -0.5457  0.0752
 1039SOL     OW 3172   3.553   2.839   4.861  0.3376 -0.0215 -0.4354
 1039SOL    HW1 3173   3.621   2.890   4.818 -0.6313  0.8995 -0.9345
 1039SOL    HW2 3174   3.543   2.761   4.807  1.2406 -0.3529 -0.1447
 1040SOL     OW 3175   4.080   1.041   1.926  0.0830  0.0215 -0.1852
 1040SOL    HW1 3176   4.123   0.968   1.970  3.5636  2.5415  1.0111
 1040SOL    HW2 3177   4.021   1.077   1.992  1.8098  0.9619  0.9303
 1041SOL     OW 3178   2.409   0.123   1.100 -0.0865  0.0869  0.1424
 1041SOL    HW1 3179   2.328   0.171   1.087  1.4438  2.4923 -1.3356
 1041SOL    HW2 3180   2.477   0.191   1.108  2.0652 -1.7974 -0.8575
 1042SOL     OW 3181   2.195   1.898   3.947 -0.1379 -0.3294  0.4915
 1042SOL    HW1 3182   2.192   1.956   4.023  0.9839 -0.2960  0.5367
 1042SOL    HW2 3183   2.289   1.890   3.928 -0.4185 -0.1404 -1.0395
 1043SOL     OW 3184   4.709   1.517   3.948  0.0022 -0.0544 -0.5268
 1043SOL    HW1 3185   4.638   1.455   3.931 -1.1220  0.9363  0.3893
 1043SOL    HW2 3186   4.685   1.559   4.030 -0.1756  2.8139 -1.9458
 1044SOL     OW 3187   2.007   0.836   3.547  0.2823 -0.0119  0.0063
 1044SOL    HW1 3188   1.985   0.913   3.496  1.0213  0.8362  0.9199
 1044SOL    HW2 3189   1.973   0.763   3.496 -1.6621  0.9871 -0.2310
 1045SOL     OW 3190   1.316   2.349   3.503  0.3286  0.0397 -0.2893
 1045SOL    HW1 3191   1.366   2.386   3.430  0.5682  1.5986  0.6248
 1045SOL    HW2 3192   1.236   2.401   3.506  0.3844  0.0836  0.6287
 1046SOL     OW 3193   0.994   1.477   2.753 -0.1616  0.2210  0.0207
 1046SOL    HW1 3194   0.989   1.571   2.737 -2.5623  0.1951  0.3360
 1046SOL    HW2 3195   1.034   1.442   2.673 -0.5534  1.3437 -0.6973
 1047SOL     OW 3196   0.342   2.965   0.388  0.0610  0.5031  0.0420
 1047SOL    HW1 3197   0.299   3.014   0.459  0.0640 -0.5087  0.7654
 1047SOL    HW2 3198   0.434   2.989   0.394 -0.1962  1.7401 -0.7292
 1048SOL     OW 3199   0.972   0.787   2.997  0.0301  0.4677  0.1828
 1048SOL    HW1 3200   1.065   0.785   2.977 -0.2813  1.6168 -1.6295
 1048SOL    HW2 3201   0.966   0.838   3.079  1.0127 -0.2239  0.7000
 1049SOL     OW 3202   3.278   0.111   4.577  0.3911 -0.0691  0.0163
 1049SOL    HW1 3203   3.361   0.159   4.579  1.3048 -1.5202 -1.0020
 1049SOL    HW2 3204   3.251   0.106   4.669  0.4669  1.9990  0.1858
 1050SOL     OW 3205   0.684   4.844   3.997  0.0447 -0.6249  0.5700
 1050SOL    HW1 3206   0.647   4.760   4.022  3.3191 -1.9484  1.6121
 1050SOL    HW2 3207   0.772   4.844   4.036  0.6989  2.7322 -0.5205
 1051SOL     OW 3208   3.750   0.061   2.591  0.2561 -1.1790  0.0563
 1051SOL    HW1 3209   3.834   0.106   2.590  0.1620 -1.0123 -0.7019
 1051SOL    HW2 3210   3.686   0.130   2.576 -0.3930 -0.6096  4.2005
 1052SOL     OW 3211   4.709   3.662   0.897 -0.0255  0.1358  0.1007
 1052SOL    HW1 3212   4.764   3.683   0.822  2.7930 -0.3764  1.8510
 1052SOL    HW2 3213   4.663   3.582   0.872  0.5833  0.1651 -1.1867
 1053SOL     OW 3214   1.212   1.384   3.624 -0.9743  0.2634 -0.2346
 1053SOL    HW1 3215   1.211   1.405   3.717  1.8201  0.3449 -0.1548
 1053SOL    HW2 3216   1.284   1.322   3.614 -1.6631 -0.2890 -2.2521
 1054SOL     OW 3217   4.537   2.390   0.118  0.3132 -0.5034 -0.1737
 1054SOL    HW1 3218   4.557   2.405   0.025  0.2682  1.0387  0.0358
 1054SOL    HW2 3219   4.469   2.322   0.118  0.1891 -0.3940 -1.2745
 1055SOL     OW 3220   1.929   3.255   0.974 -0.0157 -0.1219  0.3138
 1055SOL    HW1 3221   1.953   3.224   1.062 -0.4094 -1.1114  0.0874
 1055SOL    HW2 3222   1.995   3.215   0.916 -1.0182 -1.2671 -0.0789
 1056SOL     OW 3223   4.665   1.410   4.822  0.4196  0.0827 -0.4622
 1056SOL    HW1 3224   4.640   1.325   4.860  1.0224 -0.2597 -0.8137
 1056SOL    HW2 3225   4.602   1.472   4.858 -0.1677 -0.5570 -0.3821
 1057SOL     OW 3226   2.735   1.017   1.861  0.1502  0.3083  0.6077
 1057SOL    HW1 3227   2.792   1.067   1.802  1.3030 -1.0914  0.4688
 1057SOL    HW2 3228   2.752   1.055   1.947  0.6571  0.4829  0.4393
 1058SOL     OW 3229   4.092   3.421   2.022  0.1895 -0.0358  0.4096
 1058SOL    HW1 3230   4.103   3.516   2.011 -1.1581  0.0870  0.0383
 1058SOL    HW2 3231   3.999   3.408   2.037  0.3124 -1.3385  0.2057
 1059SOL     OW 3232   3.688   2.861   3.003  0.0041 -0.2644 -0.3414
 1059SOL    HW1 3233   3.704   2.813   2.922 -0.5268  0.0426 -0.6306
 1059SOL    HW2 3234   3.774   2.895   3.028  0.1814 -0.4176 -0.7356
 1060SOL     OW 3235   3.790   3.993   2.101 -0.4510 -0.4438  0.2245
 1060SOL    HW1 3236   3.715   3.992   2.042  0.0900  0.3499 -0.5145
 1060SOL    HW2 3237   3.771   4.064   2.163 -0.4426 -0.4281  0.2093
 1061SOL     OW 3238   2.107   4.537   0.659  0.0625  0.2489 -0.0732
 1061SOL    HW1 3239   2.183   4.485   0.635  0.3451  0.1996  0.8875
 1061SOL    HW2 3240   2.143   4.609   0.712 -0.4354  0.8541 -0.5405
 1062SOL     OW 3241   3.301   2.162   2.809  0.6265 -0.7674  0.2501
 1062SOL    HW1 3242   3.290   2.087   2.868  0.5400 -1.0430 -0.1176
 1062SOL    HW2 3243   3.390   2.154   2.776 -0.1702 -2.1527 -1.7586
 1063SOL     OW 3244   1.184   3.275   2.362  0.4396 -0.0955 -0.5998
 1063SOL    HW1 3245   1.188   3.317   2.448  0.8872 -0.4873 -0.4260
 1063SOL    HW2 3246   1.271   3.239   2.349  0.1467 -0.7240 -0.8645
 1064SOL     OW 3247   3.155   0.279   0.268 -0.0889  0.1926  0.0936
 1064SOL    HW1 3248   3.076   0.323   0.238  0.5653  0.7882 -0.8060
 1064SOL    HW2 3249   3.227   0.326   0.226  0.6822 -1.2176 -0.2577
 1065SOL     OW 3250   0.269   2.575   2.942 -0.1918 -0.2987  0.0746
 1065SOL    HW1 3251   0.307   2.487   2.939  1.0828  0.2155  0.4136
 1065SOL    HW2 3252   0.312   2.622   2.872  0.0715  0.4098  0.6959
 1066SOL     OW 3253   4.213   2.241   0.936 -0.3552  0.0450 -0.5525
 1066SOL    HW1 3254   4.184   2.266   0.849  1.5074  1.8973 -0.7187
 1066SOL    HW2 3255   4.179   2.310   0.994  0.2392  0.0275 -0.1652
 1067SOL     OW 3256   1.551   3.261   2.987  0.5369  0.3356  0.2455
 1067SOL    HW1 3257   1.503   3.217   3.058  0.5025  1.9112  1.2486
 1067SOL    HW2 3258   1.543   3.202   2.913 -0.2384 -0.9337  1.2898
 1068SOL     OW 3259   1.776   4.857   1.555  0.5667 -0.5333 -1.0116
 1068SOL    HW1 3260   1.708   4.847   1.489  0.8040  2.3787 -1.8467
 1068SOL    HW2 3261   1.856   4.871   1.506  0.7570  1.6648 -0.2095
 1069SOL     OW 3262   1.986   3.459   1.349 -0.1959  0.1335 -0.3865
 1069SOL    HW1 3263   2.042   3.502   1.283 -0.2472 -0.1035 -0.5867
 1069SOL    HW2 3264   1.923   3.527   1.375  0.4299  0.5207  0.1327
 1070SOL     OW 3265   2.696   1.294   4.188 -0.1098  0.1268 -0.1152
 1070SOL    HW1 3266   2.631   1.252   4.245 -0.4622  0.3015 -0.3860
 1070SOL    HW2 3267   2.741   1.357   4.245  0.9202 -1.1018  0.4899
 1071SOL     OW 3268   4.312   4.299   4.283 -0.2613  0.0540  0.2961
 1071SOL    HW1 3269   4.323   4.333   4.372  1.4614 -1.0667  0.5795
 1071SOL    HW2 3270   4.222   4.267   4.280 -0.8244  1.4963  1.1110
 1072SOL     OW 3271   4.386   4.168   0.027  0.4070  0.0542  0.0539
 1072SOL    HW1 3272   4.368   4.132   0.113  0.8334 -1.0430 -0.3004
 1072SOL    HW2 3273   4.310   4.143  -0.026  1.2743 -1.5129 -0.5273
 1073SOL     OW 3274   4.173   2.447   4.121 -0.0309 -0.3497  0.1788
 1073SOL    HW1 3275   4.214   2.510   4.180 -1.5627  0.3956  0.4839
 1073SOL    HW2 3276   4.138   2.500   4.050  0.7344 -1.1219 -0.7918
 1074SOL     OW 3277   3.515   3.509   1.707  0.5720 -0.3160  0.0782
 1074SOL    HW1 3278   3.452   3.470   1.768 -0.4541 -0.0573 -0.7881
 1074SOL    HW2 3279   3.510   3.603   1.724 -0.8144 -0.0797 -1.3498
 1075SOL     OW 3280   1.642   2.088   1.456 -0.8952  0.0362 -0.3285
 1075SOL    HW1 3281   1.583   2.135   1.397 -0.7164 -0.3851 -0.8534
 1075SOL    HW2 3282   1.584   2.048   1.521 -1.2425 -0.6925 -1.0577
 1076SOL     OW 3283   3.954   4.354   4.527 -0.2448 -0.0402  0.4993
 1076SOL    HW1 3284   3.974   4.400   4.609 -2.3379  1.3865  0.2857
 1076SOL    HW2 3285   3.864   4.324   4.537 -0.2558 -0.6050 -0.9653
 1077SOL     OW 3286   2.954   0.332   4.693  0.0023 -0.4180 -0.2330
 1077SOL    HW1 3287   2.881   0.383   4.659 -0.3232 -0.7910 -0.0972
 1077SOL    HW2 3288   3.029   0.361   4.642 -0.4276 -0.7784 -1.0879
 1078SOL     OW 3289   4.559   0.551   1.686 -0.0235 -0.0723  0.0022
 1078SOL    HW1 3290   4.509   0.492   1.630 -0.4378  1.1731 -1.0025
 1078SOL    HW2 3291   4.582   0.625   1.629  1.3968  0.2467  0.9271
 1079SOL     OW 3292   4.273   4.473   1.819  0.4738  0.2627  0.1490
 1079SOL    HW1 3293   4.285   4.568   1.827  0.3395  0.4386 -1.3894
 1079SOL    HW2 3294   4.352   4.436   1.858  0.7522  1.0195  0.3293
 1080SOL     OW 3295   0.265   2.030   4.565 -0.2100  0.0819  0.7163
 1080SOL    HW1 3296   0.280   1.980   4.484 -4.1652 -0.1755 -0.0422
 1080SOL    HW2 3297   0.334   2.097   4.564  0.9276 -0.9617 -1.9656
 1081SOL     OW 3298   2.365   2.611   2.691 -0.0379  0.2206  0.2549
 1081SOL    HW1 3299   2.301   2.655   2.636  0.1635  0.9183  0.5754
 1081SOL    HW2 3300   2.424   2.680   2.719  1.4667 -0.5700 -0.8479
 1082SOL     OW 3301   0.317   2.661   4.186 -0.1794 -0.0955 -0.2045
 1082SOL    HW1 3302   0.313   2.752   4.158  0.3304  0.5776  1.7556
 1082SOL    HW2 3303   0.376   2.619   4.124 -1.1403  0.6489 -1.6870
 1083SOL     OW 3304   1.497   1.669   2.133  0.5923 -0.0558  0.3450
 1083SOL    HW1 3305   1.533   1.691   2.048 -1.3535 -1.7593 -1.0100
 1083SOL    HW2 3306   1.480   1.575   2.129 -2.5563  0.3315  1.3168
 1084SOL     OW 3307   0.054   1.627   3.513 -0.1628  0.1688  0.4128
 1084SOL    HW1 3308   0.123   1.579   3.559 -1.1289  0.3226  2.1425
 1084SOL    HW2 3309   0.084   1.718   3.513  0.4712 -0.0312 -0.5200
 1085SOL     OW 3310   0.112   2.464   4.236  0.6415 -0.0023  0.5903
 1085SOL    HW1 3311   0.159   2.384   4.212  0.0001 -0.0080 -0.6651
 1085SOL    HW2 3312   0.179   2.533   4.231  1.5243 -0.5922  2.9335
 1086SOL     OW 3313   1.073   0.752   4.454 -0.4069 -0.3255 -0.6825
 1086SOL    HW1 3314   1.076   0.841   4.419  1.3534  0.9754  2.3595
 1086SOL    HW2 3315   1.160   0.716   4.436 -0.2155 -0.4192  0.3436
 1087SOL     OW 3316   3.097   4.823   1.059  0.1007 -0.0515 -0.5711
 1087SOL    HW1 3317   3.144   4.906   1.057  0.9558 -0.5388 -1.1131
 1087SOL    HW2 3318   3.027   4.837   1.123  1.1545  0.5942  0.4765
 1088SOL     OW 3319   4.540   3.174   4.357 -0.4958  0.3151  0.0621
 1088SOL    HW1 3320   4.513   3.223   4.434 -0.4493 -0.0474  0.3105
 1088SOL    HW2 3321   4.476   3.197   4.289  0.0093  1.3670 -0.0720
 1089SOL     OW 3322   3.066   0.846   0.446  0.2242 -0.5524  0.7977
 1089SOL    HW1 3323   3.047   0.752   0.445 -0.4644 -0.4317 -0.5888
 1089SOL    HW2 3324   3.121   0.859   0.523 -1.1975 -1.7776  2.0986
 1090SOL     OW 3325   2.639   4.542   3.775  0.1407 -0.3490  0.1935
 1090SOL    HW1 3326   2.572   4.604   3.747  1.3807  1.1220  0.3073
 1090SOL    HW2 3327   2.649   4.558   3.869  0.8716 -0.3051  0.1153
 1091SOL     OW 3328   2.578   4.865   0.749 -0.4210  0.3310  0.1287
 1091SOL    HW1 3329   2.553   4.820   0.669 -0.8852  0.7183  0.0525
 1091SOL    HW2 3330   2.647   4.811   0.786  0.6682  0.7703 -1.1576
 1092SOL     OW 3331   3.608   4.113   0.872  0.3810 -0.3718 -0.2305
 1092SOL    HW1 3332   3.598   4.057   0.795  4.0727  0.9602 -1.9147
 1092SOL    HW2 3333   3.649   4.056   0.938  1.7704 -0.3756 -1.0512
 1093SOL     OW 3334   3.069   2.120   0.653  0.4743  0.0937  0.8929
 1093SOL    HW1 3335   3.004   2.175   0.609 -0.0411 -0.8248  0.4800
 1093SOL    HW2 3336   3.139   2.110   0.588  0.8226  0.6874  1.1644
 1094SOL     OW 3337   3.839   4.915   4.575  0.7174  0.0027 -0.1093
 1094SOL    HW1 3338   3.788   4.884   4.650  0.4326 -2.1626 -1.1289
 1094SOL    HW2 3339   3.782   4.903   4.500  1.9184 -0.3450 -1.0002
 1095SOL     OW 3340   4.829   4.276   2.833 -0.2921  0.5507 -0.0370
 1095SOL    HW1 3341   4.824   4.371   2.829  0.1195  0.5899  0.3569
 1095SOL    HW2 3342   4.781   4.252   2.912 -0.9936  0.3768 -0.5040
 1096SOL     OW 3343   0.232   1.119   2.920 -0.0571  0.7962 -0.6355
 1096SOL    HW1 3344   0.188   1.093   2.838  2.2286 -0.9469 -1.4170
 1096SOL    HW2 3345   0.303   1.176   2.891 -1.5652  3.4932  0.5961
 1097SOL     OW 3346   3.196   1.371   2.358  0.0163  0.0952 -0.0023
 1097SOL    HW1 3347   3.215   1.444   2.417 -1.3869 -1.2417  2.2750
 1097SOL    HW2 3348   3.113   1.396   2.316  0.6867  0.7596 -0.9803
 1098SOL     OW 3349   4.106   3.164   2.497 -0.0462 -0.9656 -0.0217
 1098SOL    HW1 3350   4.168   3.091   2.491  1.7344  0.3228  1.4797
 1098SOL    HW2 3351   4.086   3.186   2.406  2.4665 -0.8485 -0.6079
 1099SOL     OW 3352   2.565   1.269   1.153  0.4099 -0.3206  0.0981
 1099SOL    HW1 3353   2.494   1.223   1.198  1.2601 -0.2975  1.5323
 1099SOL    HW2 3354   2.615   1.311   1.224  2.2629 -0.9171 -0.8009
 1100SOL     OW 3355   4.661   2.513   2.459 -0.5028 -0.4174 -0.3596
 1100SOL    HW1 3356   4.695   2.435   2.504 -1.2993 -1.4759 -1.5092
 1100SOL    HW2 3357   4.597   2.478   2.396 -2.5048  1.3477  0.5859
 1101SOL     OW 3358   4.934   4.395   3.491 -0.2343 -0.3872  0.1453
 1101SOL    HW1 3359   4.977   4.309   3.491  1.9771  0.6519 -0.2428
 1101SOL    HW2 3360   4.910   4.410   3.399  0.3918 -0.1183  0.0245
 1102SOL     OW 3361   2.278   2.634   0.652 -0.1948 -0.0764  0.0700
 1102SOL    HW1 3362   2.319   2.685   0.582  1.3336 -0.7085  0.4419
 1102SOL    HW2 3363   2.219   2.695   0.695 -0.8154  0.4565 -1.4633
 1103SOL     OW 3364   3.156   3.108   1.280 -0.6037 -0.8311  0.2586
 1103SOL    HW1 3365   3.105   3.177   1.321  0.7123  0.3609 -0.0225
 1103SOL    HW2 3366   3.236   3.104   1.333  0.0308 -1.0089 -0.6900
 1104SOL     OW 3367   4.908   4.812   4.747 -0.1612  0.3461 -0.1705
 1104SOL    HW1 3368   4.882   4.902   4.727 -2.2795  0.1869  1.4615
 1104SOL    HW2 3369   4.865   4.793   4.831  0.1897 -2.1876 -0.4889
 1105SOL     OW 3370   4.933   1.292   4.526  0.2985  0.0353 -0.1226
 1105SOL    HW1 3371   4.928   1.312   4.620  1.1025 -2.0496  0.4247
 1105SOL    HW2 3372   5.025   1.268   4.512 -0.0519 -0.7058 -1.2104
 1106SOL     OW 3373   0.568   0.994   3.819 -0.8153  0.2770 -0.1652
 1106SOL    HW1 3374   0.547   1.057   3.889 -1.1657  0.4816 -0.4518
 1106SOL    HW2 3375   0.660   0.972   3.835 -0.8938  0.3132  0.3671
 1107SOL     OW 3376   4.476   3.605   1.498 -0.5341 -0.7948  0.0163
 1107SOL    HW1 3377   4.399   3.554   1.476  0.1949 -1.4667 -1.0588
 1107SOL    HW2 3378   4.532   3.545   1.548  0.0258 -0.8587 -0.6680
 1108SOL     OW 3379   1.314   4.385   4.599 -0.5362  0.0853  0.0464
 1108SOL    HW1 3380   1.291   4.336   4.679  2.9207 -0.1646  1.0771
 1108SOL    HW2 3381   1.304   4.477   4.624 -2.0762  0.0102 -0.1902
 1109SOL     OW 3382   0.942   3.790   3.487  0.1915  0.5766 -0.4139
 1109SOL    HW1 3383   1.036   3.772   3.474 -0.0323 -0.4006 -0.7672
 1109SOL    HW2 3384   0.939   3.883   3.509  1.4269  0.1963  1.6411
 1110SOL     OW 3385   2.460   4.717   4.081  0.1583 -0.1891 -0.2839
 1110SOL    HW1 3386   2.546   4.753   4.103  0.7811 -0.9095 -1.4670
 1110SOL    HW2 3387   2.455   4.635   4.130 -0.0086  0.0194  0.0538
 1111SOL     OW 3388   2.622   2.948   2.942 -0.2312  0.6051 -1.0298
 1111SOL    HW1 3389   2.685   2.876   2.952  1.2255  1.6904 -2.0461
 1111SOL    HW2 3390   2.590   2.963   3.031  3.1171  1.8742  0.1304
 1112SOL     OW 3391   1.104   2.136   1.612  0.2481  0.0026  0.4463
 1112SOL    HW1 3392   1.053   2.085   1.675 -1.1572 -0.9876 -1.3985
 1112SOL    HW2 3393   1.094   2.227   1.642 -2.6337 -0.1429  0.2355
 1113SOL     OW 3394   2.218   4.836   2.051 -0.1682 -0.0947 -0.0602
 1113SOL    HW1 3395   2.282   4.770   2.076  0.8058  0.4540 -1.0193
 1113SOL    HW2 3396   2.271   4.913   2.028 -1.1288  0.1635 -1.4999
 1114SOL     OW 3397   2.647   2.689   0.393 -0.2746  0.5204  0.0729
 1114SOL    HW1 3398   2.635   2.777   0.428 -1.1995  0.2590  0.4620
 1114SOL    HW2 3399   2.648   2.701   0.298  0.5265  1.0471  0.1420
 1115SOL     OW 3400   2.781   3.648   0.488 -0.0695  0.0317  0.1660
 1115SOL    HW1 3401   2.748   3.724   0.441  0.0861  0.2506  0.4023
 1115SOL    HW2 3402   2.714   3.581   0.477  0.1095 -0.0264 -0.6253
 1116SOL     OW 3403   0.598   0.019   2.882 -0.1497  0.2219  0.2334
 1116SOL    HW1 3404   0.531   0.007   2.949  0.4963 -1.7982  0.5883
 1116SOL    HW2 3405   0.551   0.056   2.807 -1.1779  1.0542  1.2570
 1117SOL     OW 3406   4.336   4.840   2.916 -0.1118  0.6294 -0.3793
 1117SOL    HW1 3407   4.353   4.933   2.901 -0.7495  0.8695  0.2950
 1117SOL    HW2 3408   4.379   4.796   2.844 -0.9756  1.5518 -1.5061
 1118SOL     OW 3409   2.536   3.808   3.323  0.3397 -0.1292 -0.0153
 1118SOL    HW1 3410   2.572   3.777   3.406  0.0601  0.5187  0.3559
 1118SOL    HW2 3411   2.558   3.901   3.321  3.1655 -0.6897 -2.1325
 1119SOL     OW 3412   2.696   3.441   4.038  0.0808  0.5258  0.4705
 1119SOL    HW1 3413   2.622   3.495   4.065 -1.2440 -0.5409 -0.8270
 1119SOL    HW2 3414   2.748   3.498   3.980 -0.9564  0.6322 -0.3799
 1120SOL     OW 3415   1.742   0.188   1.398 -0.4372 -0.4384  0.1206
 1120SOL    HW1 3416   1.807   0.258   1.406 -1.2272  0.2813  0.3840
 1120SOL    HW2 3417   1.702   0.182   1.484  0.4011 -2.0180  0.4299
 1121SOL     OW 3418   3.140   3.731   1.856 -0.2234 -0.2250  0.4394
 1121SOL    HW1 3419   3.142   3.638   1.832 -0.5886 -0.5057  1.4392
 1121SOL    HW2 3420   3.160   3.777   1.775 -1.7559 -1.1052 -0.4949
 1122SOL     OW 3421   3.526   3.180   0.661  0.2325 -0.1308  0.5652
 1122SOL    HW1 3422   3.608   3.225   0.682  0.7297 -0.7962  0.0657
 1122SOL    HW2 3423   3.525   3.175   0.565 -0.5805  0.2093  0.5473
 1123SOL     OW 3424   2.499   4.101   1.228  0.1996  0.2665  0.2625
 1123SOL    HW1 3425   2.540   4.121   1.144 -0.1105  1.3315  0.3462
 1123SOL    HW2 3426   2.447   4.179   1.248 -1.0866 -0.6458  0.6239
 1124SOL     OW 3427   2.632   0.133   0.521  0.4002 -0.2134 -0.8927
 1124SOL    HW1 3428   2.597   0.056   0.477  0.6030 -0.4916 -0.5787
 1124SOL    HW2 3429   2.716   0.104   0.556  0.5792  0.2153 -0.9621
 1125SOL     OW 3430   0.674   0.725   0.121 -0.3316  0.1921 -0.0668
 1125SOL    HW1 3431   0.646   0.773   0.043  0.4768 -0.8287 -1.0209
 1125SOL    HW2 3432   0.725   0.788   0.171  2.2852 -0.0878 -2.1913
 1126SOL     OW 3433   0.806   2.106   4.857 -0.0439  0.5178 -0.5266
 1126SOL    HW1 3434   0.786   2.199   4.850  0.4625  0.9824  2.5922
 1126SOL    HW2 3435   0.901   2.102   4.864 -0.1831  0.2185  2.7579
 1127SOL     OW 3436   0.488   4.938   2.354  0.1666 -0.0492 -0.0102
 1127SOL    HW1 3437   0.432   4.975   2.286 -0.5706  1.2625  1.2481
 1127SOL    HW2 3438   0.566   4.993   2.352  0.6710 -0.7690 -0.5797
 1128SOL     OW 3439   3.020   3.238   2.558 -0.2434  0.5835 -0.9263
 1128SOL    HW1 3440   3.054   3.303   2.497  1.2935 -0.4422 -1.2027
 1128SOL    HW2 3441   3.003   3.160   2.504  2.1215 -0.6916  0.0280
 1129SOL     OW 3442   1.520   2.834   2.619 -0.0176 -0.5200  0.2706
 1129SOL    HW1 3443   1.539   2.757   2.673  2.4643  0.2106  0.5219
 1129SOL    HW2 3444   1.603   2.879   2.609 -1.0469  1.2016 -1.3978
 1130SOL     OW 3445   4.460   2.062   0.718 -0.2873  0.7203 -0.2652
 1130SOL    HW1 3446   4.502   1.981   0.746 -1.4439  0.9471  2.5474
 1130SOL    HW2 3447   4.367   2.040   0.711 -0.4296  1.4725 -0.9401
 1131SOL     OW 3448   3.428   1.359   4.900 -0.4168  0.0646 -0.2861
 1131SOL    HW1 3449   3.339   1.388   4.881 -1.2153 -0.8025  1.8347
 1131SOL    HW2 3450   3.483   1.433   4.876 -1.9063  1.4143  0.2676
 1132SOL     OW 3451   4.877   2.952   1.106 -0.0229  0.6239 -0.2770
 1132SOL    HW1 3452   4.804   2.964   1.168 -0.8987  0.3019 -1.2126
 1132SOL    HW2 3453   4.853   2.874   1.056  2.5517 -1.4836  1.5344
 1133SOL     OW 3454   3.889   3.094   3.655 -0.1030 -0.5069  0.3317
 1133SOL    HW1 3455   3.867   3.025   3.593 -0.6618 -0.9827  1.0605
 1133SOL    HW2 3456   3.980   3.075   3.680 -0.1373 -0.7665  0.2610
 1134SOL     OW 3457   2.581   1.210   2.600  0.2821  0.5192 -0.5052
 1134SOL    HW1 3458   2.616   1.163   2.675  0.5067 -1.9937 -2.0667
 1134SOL    HW2 3459   2.583   1.146   2.529 -1.3993  2.3013 -2.2689
 1135SOL     OW 3460   3.548   4.582   1.813  0.5502  0.1847 -0.5103
 1135SOL    HW1 3461   3.639   4.553   1.810  0.8004  0.8813 -0.0122
 1135SOL    HW2 3462   3.530   4.614   1.724  0.6304 -0.4116 -0.7454
 1136SOL     OW 3463   1.479   1.826   3.741 -0.5991 -0.6004  0.1415
 1136SOL    HW1 3464   1.494   1.791   3.654 -0.0033  1.1131 -0.4822
 1136SOL    HW2 3465   1.467   1.920   3.727  1.0653 -0.0399  2.0583
 1137SOL     OW 3466   3.238   0.966   1.623  0.0242  0.0108 -0.1688
 1137SOL    HW1 3467   3.247   1.059   1.599  0.6189  0.5009  1.7679
 1137SOL    HW2 3468   3.274   0.919   1.548 -0.4086  1.3356 -1.2579
 1138SOL     OW 3469   1.832   1.363   2.210 -0.0688 -0.2642  0.3146
 1138SOL    HW1 3470   1.879   1.355   2.126 -1.1079  0.2738 -0.3398
 1138SOL    HW2 3471   1.900   1.388   2.272  0.7225 -0.6468 -0.3746
 1139SOL     OW 3472   2.027   1.037   2.031  0.1425  0.3912 -0.0360
 1139SOL    HW1 3473   2.107   1.039   1.978 -0.6707  1.5765 -1.2830
 1139SOL    HW2 3474   2.048   0.979   2.104  1.7258 -0.3118 -0.9964
 1140SOL     OW 3475   2.713   4.855   4.099 -0.3482 -0.2761  0.5119
 1140SOL    HW1 3476   2.692   4.934   4.050 -0.0384 -0.1981  0.4990
 1140SOL    HW2 3477   2.777   4.884   4.164 -0.9492 -0.3252  1.1371
 1141SOL     OW 3478   3.996   2.608   4.400 -0.1024 -0.2171  1.3326
 1141SOL    HW1 3479   4.082   2.628   4.365 -1.8624 -0.0890 -3.7421
 1141SOL    HW2 3480   3.972   2.685   4.452  0.9353  2.1512 -1.4447
 1142SOL     OW 3481   4.576   1.584   3.248  0.4135 -0.1568  0.2745
 1142SOL    HW1 3482   4.489   1.611   3.217  0.4254 -2.1397 -1.7120
 1142SOL    HW2 3483   4.634   1.597   3.173  1.4163 -0.7432  0.9191
 1143SOL     OW 3484   3.105   3.714   4.981  0.5167  0.5224 -0.5150
 1143SOL    HW1 3485   3.184   3.745   5.026  0.2892 -0.4348  0.5863
 1143SOL    HW2 3486   3.138   3.677   4.899  1.2326  0.1218 -0.0645
 1144SOL     OW 3487   2.022   3.226   1.216 -0.4071 -0.0893  0.2465
 1144SOL    HW1 3488   2.005   3.300   1.275  2.6782  0.8868  0.0543
 1144SOL    HW2 3489   2.037   3.152   1.275 -1.9575 -0.2502  0.4832
 1145SOL     OW 3490   0.110   4.525   1.855  0.4996 -0.1241 -0.5763
 1145SOL    HW1 3491   0.070   4.441   1.876 -0.1188 -0.5253 -3.0574
 1145SOL    HW2 3492   0.048   4.567   1.796  0.9638  1.9565  0.3361
 1146SOL     OW 3493   1.539   0.600   3.647 -0.2324 -0.0040 -0.5412
 1146SOL    HW1 3494   1.578   0.626   3.731 -1.9820  0.1973  0.2804
 1146SOL    HW2 3495   1.552   0.676   3.590  1.5872 -0.4070 -0.7080
 1147SOL     OW 3496   4.164   4.530   0.957  0.4252  0.1586  0.1464
 1147SOL    HW1 3497   4.163   4.534   1.053  2.3973 -0.5005  0.2453
 1147SOL    HW2 3498   4.226   4.599   0.932  1.4321 -0.9477 -0.5159
 1148SOL     OW 3499   2.873   0.258   3.403  0.0673  0.1482  0.1864
 1148SOL    HW1 3500   2.789   0.265   3.357  0.5793  0.0005 -0.8122
 1148SOL    HW2 3501   2.852   0.218   3.487 -0.6808 -1.2255 -0.6211
 1149SOL     OW 3502   3.648   2.270   3.447 -0.0073  0.6994 -0.1940
 1149SOL    HW1 3503   3.607   2.187   3.472  0.4133  0.8459  1.1029
 1149SOL    HW2 3504   3.580   2.318   3.400 -0.4328 -0.1534 -0.4574
 1150SOL     OW 3505   4.106   3.868   2.417  0.1928 -0.6946 -0.1400
 1150SOL    HW1 3506   4.146   3.847   2.502  1.5938  0.2972 -0.5299
 1150SOL    HW2 3507   4.055   3.947   2.433 -1.5250 -1.8470  0.3092
 1151SOL     OW 3508   3.430   2.504   4.331 -0.0686 -0.2060 -0.2812
 1151SOL    HW1 3509   3.348   2.455   4.322 -0.6615  0.4096  1.4103
 1151SOL    HW2 3510   3.484   2.450   4.389 -0.0451  0.3034  0.1762
 1152SOL     OW 3511   3.207   0.911   0.654  0.1156  0.8787 -0.3449
 1152SOL    HW1 3512   3.140   0.962   0.700 -1.5052 -1.4662  0.0998
 1152SOL    HW2 3513   3.275   0.896   0.720 -0.7513  0.0962  0.3922
 1153SOL     OW 3514   4.390   2.126   0.257  0.0968  0.1302 -0.7042
 1153SOL    HW1 3515   4.400   2.133   0.163  1.3164  0.7412 -0.5530
 1153SOL    HW2 3516   4.460   2.067   0.285 -1.2990 -1.4250 -0.3411
 1154SOL     OW 3517   2.600   1.406   0.268  0.2519  0.1372 -0.5053
 1154SOL    HW1 3518   2.657   1.470   0.226  0.0630 -0.6304 -2.0130
 1154SOL    HW2 3519   2.537   1.458   0.317  1.0644  1.0433 -0.3942
 1155SOL     OW 3520   4.853   4.327   1.998 -0.3037  0.1482  0.6089
 1155SOL    HW1 3521   4.888   4.341   2.087 -0.0739  1.5941  0.3179
 1155SOL    HW2 3522   4.796   4.402   1.983 -0.2228  0.0010 -0.5271
 1156SOL     OW 3523   3.069   1.139   2.464 -0.2453  0.1707  0.1089
 1156SOL    HW1 3524   3.121   1.211   2.427  1.5847 -1.7624 -1.3352
 1156SOL    HW2 3525   3.105   1.127   2.552 -2.2141  2.4811  1.3573
 1157SOL     OW 3526   4.920   4.896   3.205  0.5419 -0.0922 -0.1222
 1157SOL    HW1 3527   4.925   4.986   3.173  0.9469 -0.3145 -0.7072
 1157SOL    HW2 3528   4.842   4.894   3.260 -0.0049  0.3826 -0.8612
 1158SOL     OW 3529   2.473   0.965   3.164 -0.4260 -0.5144 -0.0762
 1158SOL    HW1 3530   2.461   0.908   3.239  1.0905  0.3192  0.8586
 1158SOL    HW2 3531   2.489   1.052   3.202  0.6704 -0.1314 -1.3127
 1159SOL     OW 3532   1.388   0.906   1.027  0.1514 -0.1571 -0.9195
 1159SOL    HW1 3533   1.386   0.946   1.115  0.4244 -0.6412 -0.6897
 1159SOL    HW2 3534   1.298   0.881   1.011  0.3757 -1.6634 -0.0213
 1160SOL     OW 3535   1.250   3.246   3.569  0.5065 -0.4091 -0.5832
 1160SOL    HW1 3536   1.335   3.207   3.547  0.2084 -0.1093 -2.4055
 1160SOL    HW2 3537   1.272   3.331   3.605  1.0152 -0.8092  0.0908
 1161SOL     OW 3538   3.064   0.624   2.388  0.2259  0.5423 -0.0542
 1161SOL    HW1 3539   2.984   0.648   2.436  1.3520  0.7603  1.8283
 1161SOL    HW2 3540   3.131   0.683   2.423  1.3086  0.0941 -1.3111
 1162SOL     OW 3541   1.040   0.999   3.274  0.1652 -0.2575 -0.2308
 1162SOL    HW1 3542   1.106   0.931   3.289 -0.9615 -1.3345 -0.0129
 1162SOL    HW2 3543   1.075   1.051   3.202  0.7660 -1.4462 -0.8215
 1163SOL     OW 3544   1.254   1.355   4.718  0.2397 -0.5719  0.3406
 1163SOL    HW1 3545   1.208   1.414   4.778  0.2636  1.0764 -1.1781
 1163SOL    HW2 3546   1.189   1.289   4.695 -0.2990 -0.2304  0.8509
 1164SOL     OW 3547   4.343   3.025   4.604  0.0172  0.7739  0.1977
 1164SOL    HW1 3548   4.411   3.076   4.648  1.5954 -0.7266 -0.4105
 1164SOL    HW2 3549   4.377   3.009   4.516  0.2232 -2.3467  0.7217
 1165SOL     OW 3550   0.627   1.834   3.187 -0.3452 -0.1359 -1.0010
 1165SOL    HW1 3551   0.625   1.743   3.216 -0.2180  0.3186  0.4922
 1165SOL    HW2 3552   0.694   1.835   3.118  0.3996 -0.9638 -0.3121
 1166SOL     OW 3553   2.840   3.514   2.630 -0.0092 -0.2207  0.0325
 1166SOL    HW1 3554   2.784   3.447   2.594  0.3453  0.1757 -1.2931
 1166SOL    HW2 3555   2.928   3.476   2.628  0.3992  0.7455 -1.9973
 1167SOL     OW 3556   4.907   4.655   2.229 -0.4939 -0.1792  0.3243
 1167SOL    HW1 3557   4.972   4.678   2.163  1.0565  0.9214  2.1379
 1167SOL    HW2 3558   4.899   4.560   2.223  0.8620 -0.2795 -0.3255
 1168SOL     OW 3559   1.064   4.414   2.823 -0.1003 -0.2341  0.0425
 1168SOL    HW1 3560   1.044   4.364   2.745 -0.0688 -0.7546  0.3623
 1168SOL    HW2 3561   1.095   4.498   2.791  0.7679 -0.7578 -0.5256
 1169SOL     OW 3562   2.872   0.968   2.389  0.2747  0.2617 -0.3203
 1169SOL    HW1 3563   2.940   1.029   2.417  0.1166  0.8781 -1.2464
 1169SOL    HW2 3564   2.911   0.921   2.315  0.9249 -1.8013  1.2253
 1170SOL     OW 3565   4.330   0.396   2.313  0.2394 -0.0582  0.1386
 1170SOL    HW1 3566   4.313   0.474   2.261  0.2280 -0.2056 -0.0812
 1170SOL    HW2 3567   4.415   0.364   2.282  1.9330  1.7552  2.5440
 1171SOL     OW 3568   2.556   4.645   2.864 -0.4113 -0.0627  0.2772
 1171SOL    HW1 3569   2.520   4.734   2.862 -0.6899 -0.1772  0.1816
 1171SOL    HW2 3570   2.561   4.624   2.957 -1.9171 -0.5765  0.2772
 1172SOL     OW 3571   2.426   2.727   2.385  0.0167  0.0152  0.1963
 1172SOL    HW1 3572   2.331   2.725   2.389  0.0045 -2.9528  0.2238
 1172SOL    HW2 3573   2.452   2.770   2.467 -1.2777 -0.2270  0.7648
 1173SOL     OW 3574   2.745   1.369   1.423  0.3779 -0.0211  0.2831
 1173SOL    HW1 3575   2.839   1.382   1.413  0.0397  1.8209 -0.9952
 1173SOL    HW2 3576   2.734   1.275   1.431  2.2953 -0.2881  0.1685
 1174SOL     OW 3577   4.785   4.562   1.142 -0.4186  0.1908 -0.6781
 1174SOL    HW1 3578   4.821   4.527   1.224 -2.0020  0.1233  0.0251
 1174SOL    HW2 3579   4.720   4.626   1.170 -0.8942  0.2572 -1.8884
 1175SOL     OW 3580   3.129   2.476   4.186 -0.4256  0.2505 -0.2650
 1175SOL    HW1 3581   3.043   2.518   4.190 -0.7461 -0.3965 -0.3455
 1175SOL    HW2 3582   3.137   2.448   4.094 -1.5110 -2.5395  0.3890
 1176SOL     OW 3583   4.365   4.423   2.380  0.5659  0.1917 -0.5532
 1176SOL    HW1 3584   4.412   4.376   2.449 -0.4955  1.9695  1.4922
 1176SOL    HW2 3585   4.367   4.363   2.305  4.6470 -0.4918 -0.1334
 1177SOL     OW 3586   1.969   3.001   0.519  0.0171 -0.5698 -0.6842
 1177SOL    HW1 3587   1.971   2.952   0.436 -1.9888 -0.1288 -1.0325
 1177SOL    HW2 3588   2.006   3.086   0.497 -0.4683 -0.4681 -1.1395
 1178SOL     OW 3589   2.754   2.249   4.749 -0.2970  0.1224  0.1968
 1178SOL    HW1 3590   2.731   2.164   4.712 -1.0742  0.5231 -0.2701
 1178SOL    HW2 3591   2.817   2.286   4.687 -2.1210  1.0898 -1.1642
 1179SOL     OW 3592   3.190   3.354   1.426 -0.4342  0.0045 -0.6704
 1179SOL    HW1 3593   3.138   3.416   1.374 -1.7179  0.4234  1.0421
 1179SOL    HW2 3594   3.276   3.395   1.432 -1.6450  2.5343  1.7375
 1180SOL     OW 3595   1.824   2.369   3.350  0.4213 -0.5190  0.6034
 1180SOL    HW1 3596   1.832   2.342   3.441  4.0318  3.1484  1.6845
 1180SOL    HW2 3597   1.893   2.321   3.304  0.1554 -0.6279  0.3147
 1181SOL     OW 3598   1.856   4.743   0.826  0.4809 -0.2930 -0.3526
 1181SOL    HW1 3599   1.949   4.757   0.846  0.5771 -0.6903 -0.4944
 1181SOL    HW2 3600   1.818   4.830   0.822  0.6874 -0.1657  0.4731
 1182SOL     OW 3601   4.783   3.723   3.949 -0.2568  0.3801 -0.0985
 1182SOL    HW1 3602   4.742   3.805   3.977  0.1062  0.5661 -0.1075
 1182SOL    HW2 3603   4.847   3.704   4.017 -1.9973 -1.1867  1.1927
 1183SOL     OW 3604   1.663   4.535   1.624 -0.3891 -0.0358 -0.5712
 1183SOL    HW1 3605   1.592   4.471   1.634 -2.2166  0.9266 -5.1196
 1183SOL    HW2 3606   1.624   4.608   1.576  2.2026  3.6122  2.2360
 1184SOL     OW 3607   4.111   3.051   1.138  0.2750 -0.2070  0.3004
 1184SOL    HW1 3608   4.202   3.072   1.120  0.3046 -0.8840 -0.4038
 1184SOL    HW2 3609   4.095   3.083   1.227  0.4601  2.2396 -0.4691
 1185SOL     OW 3610   3.222   1.538   4.948 -0.0721 -0.7123  0.1806
 1185SOL    HW1 3611   3.255   1.533   5.038  2.5297  0.4949 -0.5781
 1185SOL    HW2 3612   3.137   1.580   4.955  0.3455 -0.0916  2.0716
 1186SOL     OW 3613   4.543   3.270   4.688 -0.3232 -0.0614 -0.5586
 1186SOL    HW1 3614   4.578   3.344   4.640  0.6379  1.1025  1.7779
 1186SOL    HW2 3615   4.517   3.306   4.773  1.8729 -2.6235  1.4001
 1187SOL     OW 3616   2.185   1.282   3.002 -0.2126 -0.2123  0.2252
 1187SOL    HW1 3617   2.148   1.332   3.074  0.2435 -1.8921  1.6868
 1187SOL    HW2 3618   2.274   1.316   2.993 -0.5022  0.4888 -0.0347
 1188SOL     OW 3619   3.639   2.136   1.419 -0.0006  0.2207 -0.8993
 1188SOL    HW1 3620   3.649   2.219   1.373 -1.9190  0.4067 -1.0525
 1188SOL    HW2 3621   3.615   2.073   1.350  1.7643 -0.5700 -0.8430
 1189SOL     OW 3622   2.633   2.208   2.388  0.1574  0.5090 -0.5094
 1189SOL    HW1 3623   2.688   2.175   2.317 -0.1924  1.2489 -1.1414
 1189SOL    HW2 3624   2.591   2.286   2.352 -0.8916  0.2722  0.1373
 1190SOL     OW 3625   1.404   0.598   2.510 -0.5684 -0.1578  0.7151
 1190SOL    HW1 3626   1.317   0.578   2.542 -1.2626  0.9753 -0.3659
 1190SOL    HW2 3627   1.399   0.690   2.483  1.7937  0.8857  3.3665
 1191SOL     OW 3628   3.407   1.237   1.973  0.2126  0.5068  0.1319
 1191SOL    HW1 3629   3.389   1.220   2.066  0.0344  0.5163  0.0988
 1191SOL    HW2 3630   3.398   1.332   1.964 -3.5195  0.2399 -0.6693
 1192SOL     OW 3631   3.338   0.287   3.646  0.3267  0.1650  0.1487
 1192SOL    HW1 3632   3.425   0.248   3.646  0.1671 -0.2439 -1.2620
 1192SOL    HW2 3633   3.283   0.223   3.690  0.5600  0.0150  0.2238
 1193SOL     OW 3634   0.077   1.447   2.876 -0.1052  0.1179 -0.4355
 1193SOL    HW1 3635   0.172   1.453   2.881  0.0936 -1.8463 -1.1556
 1193SOL    HW2 3636   0.050   1.429   2.966  0.3192 -0.5201 -0.4292
 1194SOL     OW 3637   3.653   1.357   1.272 -0.4466  0.3216 -0.2765
 1194SOL    HW1 3638   3.722   1.393   1.327 -0.9552  0.6927  0.1256
 1194SOL    HW2 3639   3.682   1.373   1.182  0.5896 -0.6594 -0.1442
 1195SOL     OW 3640   0.710   4.705   1.992  0.7811  0.4323  0.1345
 1195SOL    HW1 3641   0.755   4.736   1.913  2.7422 -1.3640  0.4313
 1195SOL    HW2 3642   0.721   4.775   2.055  2.4870  0.4276 -0.0962
 1196SOL     OW 3643   3.808   3.161   1.246  0.5453  0.0511  0.3195
 1196SOL    HW1 3644   3.738   3.172   1.182 -0.9009  0.7924  1.9738
 1196SOL    HW2 3645   3.867   3.097   1.205 -0.1195  0.7336 -1.8825
 1197SOL     OW 3646   1.003   3.841   0.424  0.2736 -0.0253 -0.0496
 1197SOL    HW1 3647   1.090   3.822   0.387  1.7595  1.4077  2.4605
 1197SOL    HW2 3648   1.021   3.889   0.505 -2.8984  0.3590  0.5509
 1198SOL     OW 3649   1.143   2.755   3.350  0.0042 -0.1700  0.0456
 1198SOL    HW1 3650   1.057   2.739   3.389  0.4407 -0.5847  0.8489
 1198SOL    HW2 3651   1.181   2.668   3.338  0.0784 -0.0281 -0.8824
 1199SOL     OW 3652   3.852   2.207   2.617  0.6554 -1.1235  0.3984
 1199SOL    HW1 3653   3.929   2.251   2.579  0.4990 -1.4089 -0.2679
 1199SOL    HW2 3654   3.845   2.244   2.705  0.2053  0.5959 -0.3132
 1200SOL     OW 3655   4.339   3.761   2.204  0.3010 -0.1392  0.2972
 1200SOL    HW1 3656   4.253   3.764   2.162  1.1550  1.2603 -1.4825
 1200SOL    HW2 3657   4.322   3.778   2.297 -1.4039 -0.8750  0.1593
 1201SOL     OW 3658   3.095   4.719   2.685 -0.5224 -0.2852  0.1750
 1201SOL    HW1 3659   3.072   4.632   2.718 -0.8833  0.1992  1.2319
 1201SOL    HW2 3660   3.089   4.710   2.590 -0.8808 -1.3266  0.2757
 1202SOL     OW 3661   0.441   0.095   2.643  0.1130 -0.2804 -0.7679
 1202SOL    HW1 3662   0.424   0.051   2.559  1.7098 -0.0977 -1.2123
 1202SOL    HW2 3663   0.519   0.148   2.627 -1.2015  2.0442  0.0244
 1203SOL     OW 3664   3.348   4.479   0.043 -0.2030  0.4428 -0.6389
 1203SOL    HW1 3665   3.278   4.494  -0.021  0.3250 -0.0424 -1.3490
 1203SOL    HW2 3666   3.425   4.520   0.003  0.2196 -0.1967 -0.4958
 1204SOL     OW 3667   3.425   3.386   4.914 -0.3143 -0.3334  0.1122
 1204SOL    HW1 3668   3.463   3.329   4.846  2.2270 -3.2370  3.5809
 1204SOL    HW2 3669   3.356   3.333   4.953 -0.8098  0.7372  0.7143
 1205SOL     OW 3670   0.209   4.554   4.443  0.0934  0.1718  0.6498
 1205SOL    HW1 3671   0.217   4.636   4.493 -1.7031  0.4264  0.5871
 1205SOL    HW2 3672   0.163   4.494   4.502 -1.2979  0.2017 -0.3415
 1206SOL     OW 3673   0.184   2.184   2.138 -0.2077 -0.1735 -0.2509
 1206SOL    HW1 3674   0.089   2.182   2.124 -0.1249  1.3222 -1.1433
 1206SOL    HW2 3675   0.206   2.276   2.146  1.1832 -0.4969  0.0032
 1207SOL     OW 3676   2.882   4.581   1.400 -0.0057 -0.4729  0.9457
 1207SOL    HW1 3677   2.885   4.575   1.496 -1.1795 -1.7820  0.9274
 1207SOL    HW2 3678   2.955   4.526   1.371 -0.1233 -0.6996  1.0765
 1208SOL     OW 3679   1.976   4.162   3.467  0.4337 -0.6805 -0.2073
 1208SOL    HW1 3680   2.003   4.188   3.555  0.4132 -0.1295 -0.3583
 1208SOL    HW2 3681   2.016   4.228   3.410 -0.7348 -0.1971 -0.4911
 1209SOL     OW 3682   3.184   3.265   1.679  0.1471 -0.1294 -0.8743
 1209SOL    HW1 3683   3.183   3.284   1.585  0.2826  3.4910 -0.2573
 1209SOL    HW2 3684   3.269   3.222   1.693  0.6870  0.4225 -2.2242
 1210SOL     OW 3685   1.387   4.665   0.716  0.2513  0.2537  0.0935
 1210SOL    HW1 3686   1.465   4.688   0.665  0.6180 -1.0311  0.0435
 1210SOL    HW2 3687   1.332   4.616   0.656  0.6116 -1.1364  0.8484
 1211SOL     OW 3688   0.151   4.163   3.431  0.6131  0.3397  0.3279
 1211SOL    HW1 3689   0.194   4.182   3.514 -0.1739 -0.2919  0.8989
 1211SOL    HW2 3690   0.222   4.157   3.367  1.2755  0.2859  1.0540
 1212SOL     OW 3691   1.540   3.724   1.529  0.1681  0.0713 -0.2214
 1212SOL    HW1 3692   1.486   3.673   1.468  0.2294 -1.0105  0.5903
 1212SOL    HW2 3693   1.565   3.661   1.597  2.1228  0.6437 -0.3484
 1213SOL     OW 3694   4.185   2.175   0.428 -0.0049 -0.1309 -0.3148
 1213SOL    HW1 3695   4.266   2.164   0.378 -1.1799 -0.4617 -2.2283
 1213SOL    HW2 3696   4.136   2.241   0.379 -2.4342 -2.5014 -1.2780
 1214SOL     OW 3697   4.563   1.559   1.423 -0.3741  0.2957 -0.0622
 1214SOL    HW1 3698   4.481   1.513   1.403 -1.7780  0.9207  3.4980
 1214SOL    HW2 3699   4.547   1.649   1.394 -1.3024  0.5872  1.2702
 1215SOL     OW 3700   4.293   3.299   1.889 -0.2383 -0.5981 -0.1684
 1215SOL    HW1 3701   4.351   3.298   1.966  0.9923  0.9721 -0.9985
 1215SOL    HW2 3702   4.207   3.319   1.924  0.3789  0.5173  0.8003
 1216SOL     OW 3703   2.713   0.454   0.926  0.2206 -0.2073  0.7064
 1216SOL    HW1 3704   2.680   0.421   0.842 -1.5791  2.4049  0.2474
 1216SOL    HW2 3705   2.808   0.462   0.913 -0.0603  0.5738 -1.3052
 1217SOL     OW 3706   3.281   2.029   3.636 -0.7722  0.0241  0.5297
 1217SOL    HW1 3707   3.223   1.960   3.605 -1.6426  0.9556 -0.0028
 1217SOL    HW2 3708   3.242   2.110   3.601  1.5454  0.6003 -0.9998
 1218SOL     OW 3709   3.736   1.699   3.015  0.7320 -0.1777 -0.0449
 1218SOL    HW1 3710   3.763   1.778   2.970 -2.0235  1.3810  0.7986
 1218SOL    HW2 3711   3.789   1.697   3.095  0.3950  1.2191  0.2387
 1219SOL     OW 3712   2.492   4.722   0.149  0.5120  0.2402 -0.1068
 1219SOL    HW1 3713   2.585   4.741   0.136  0.5818 -0.7068 -1.2032
 1219SOL    HW2 3714   2.478   4.638   0.106 -1.2096  1.1407 -1.4574
 1220SOL     OW 3715   1.103   4.781   3.595  0.2183  0.7771  0.1978
 1220SOL    HW1 3716   1.067   4.777   3.684  0.2945 -0.6350  0.1789
 1220SOL    HW2 3717   1.198   4.779   3.607  0.3190 -3.5808  0.0344
 1221SOL     OW 3718   3.564   2.952   3.661  0.5077  0.1875  0.4863
 1221SOL    HW1 3719   3.657   2.930   3.662  0.6390  0.6848  1.9138
 1221SOL    HW2 3720   3.558   3.034   3.710 -0.8276 -0.5195  1.5878
 1222SOL     OW 3721   3.857   4.410   0.874  0.3612 -0.0096 -0.2280
 1222SOL    HW1 3722   3.902   4.327   0.884  1.0244  0.3671 -0.0575
 1222SOL    HW2 3723   3.766   4.391   0.897  0.1303 -1.0840 -1.8490
 1223SOL     OW 3724   2.141   0.434   3.315 -0.0935  0.3713 -0.2962
 1223SOL    HW1 3725   2.133   0.483   3.234  0.9560  1.7827  0.4142
 1223SOL    HW2 3726   2.217   0.471   3.359 -0.1023 -0.9550  0.9404
 1224SOL     OW 3727   2.492   2.135   0.233  0.0999 -0.1634  0.2023
 1224SOL    HW1 3728   2.448   2.209   0.275 -1.7305 -1.5658  0.8714
 1224SOL    HW2 3729   2.577   2.170   0.207 -0.7436  2.1940  0.3842
 1225SOL     OW 3730   1.977   0.594   2.046 -0.1879  0.7296  0.6963
 1225SOL    HW1 3731   2.069   0.616   2.057 -0.0933 -0.4066  2.7389
 1225SOL    HW2 3732   1.938   0.670   2.004  1.3578  1.9332  1.3716
 1226SOL     OW 3733   4.202   0.005   3.695 -0.5915  0.3092  0.5367
 1226SOL    HW1 3734   4.131   0.002   3.631  0.3596 -0.4817 -0.5267
 1226SOL    HW2 3735   4.257   0.077   3.666 -0.4569  0.3105  0.7968
 1227SOL     OW 3736   3.531   2.593   4.077 -0.1780 -0.2157 -0.5430
 1227SOL    HW1 3737   3.492   2.676   4.104  0.3765 -0.1620  0.1213
 1227SOL    HW2 3738   3.486   2.527   4.129  0.8409 -0.1193  0.4879
 1228SOL     OW 3739   0.659   4.037   4.017  0.0650  0.3356 -0.0939
 1228SOL    HW1 3740   0.696   3.959   4.059  0.5149 -0.3953 -1.7609
 1228SOL    HW2 3741   0.734   4.094   4.001 -0.1405  0.7261  0.3391
 1229SOL     OW 3742   0.288   3.270   3.222 -0.2255 -0.4089 -0.0109
 1229SOL    HW1 3743   0.287   3.258   3.317 -1.3724 -3.0828 -0.2680
 1229SOL    HW2 3744   0.206   3.313   3.202 -0.6668 -1.1739  0.1117
 1230SOL     OW 3745   1.182   1.977   3.925  0.0711  0.0647  0.0601
 1230SOL    HW1 3746   1.271   1.963   3.956 -0.2365  0.2173  1.0561
 1230SOL    HW2 3747   1.134   2.007   4.003 -1.1935 -1.4717 -0.0821
 1231SOL     OW 3748   1.801   0.924   0.742  0.1114 -0.3446 -0.0283
 1231SOL    HW1 3749   1.733   0.980   0.778  1.1798  0.6157  0.5978
 1231SOL    HW2 3750   1.782   0.920   0.648 -1.1862 -0.6757  0.2358
 1232SOL     OW 3751   3.585   0.383   3.299  0.0520  0.3823 -0.2742
 1232SOL    HW1 3752   3.635   0.420   3.227  0.4925 -2.4289 -1.5487
 1232SOL    HW2 3753   3.506   0.347   3.258 -0.2833 -0.1788  0.8117
 1233SOL     OW 3754   0.476   2.107   2.098 -0.7390  0.0924 -0.4327
 1233SOL    HW1 3755   0.389   2.146   2.104 -0.6272  0.3065 -0.1824
 1233SOL    HW2 3756   0.467   2.038   2.033 -1.0580  0.2172 -0.5224
 1234SOL     OW 3757   0.454   2.921   1.633 -0.4334 -0.6347  0.3009
 1234SOL    HW1 3758   0.506   2.844   1.659 -0.8699 -1.0519 -0.0472
 1234SOL    HW2 3759   0.479   2.988   1.696  1.4300 -0.4494 -0.5515
 1235SOL     OW 3760   0.459   3.506   1.532  0.0953 -0.0025 -0.3691
 1235SOL    HW1 3761   0.380   3.458   1.556  1.3229 -2.1590 -0.3823
 1235SOL    HW2 3762   0.496   3.536   1.616 -0.8251  1.2444 -0.3813
 1236SOL     OW 3763   1.517   3.540   3.008 -0.1219 -0.5701 -0.2812
 1236SOL    HW1 3764   1.550   3.450   3.013  0.1532 -0.4756 -0.3439
 1236SOL    HW2 3765   1.422   3.531   3.000 -0.1712 -0.8265  0.5794
 1237SOL     OW 3766   3.571   3.808   3.339 -0.5758  0.0875  0.0672
 1237SOL    HW1 3767   3.529   3.762   3.267 -1.2469 -1.6455  1.5108
 1237SOL    HW2 3768   3.526   3.778   3.417  0.5323  1.4539  1.2983
 1238SOL     OW 3769   3.098   2.600   2.351 -0.1272  0.7820 -0.2201
 1238SOL    HW1 3770   3.172   2.655   2.326 -0.1181  0.1127 -1.7839
 1238SOL    HW2 3771   3.021   2.646   2.320 -0.2747  0.8165  0.1830
 1239SOL     OW 3772   1.380   4.741   1.232  0.5699 -0.0029 -0.2678
 1239SOL    HW1 3773   1.471   4.754   1.258  0.4155  1.3752 -0.3086
 1239SOL    HW2 3774   1.384   4.706   1.144  1.1016  2.5194 -1.3397
 1240SOL     OW 3775   0.600   1.820   1.602  0.4386  0.3231 -0.4065
 1240SOL    HW1 3776   0.660   1.851   1.535 -0.5466 -0.2581 -1.5982
 1240SOL    HW2 3777   0.514   1.817   1.559  0.2601 -3.0373 -0.1336
 1241SOL     OW 3778   0.515   3.441   0.678 -0.6944  0.2993 -0.1988
 1241SOL    HW1 3779   0.490   3.476   0.764 -0.2499  0.8004 -0.2656
 1241SOL    HW2 3780   0.603   3.475   0.663 -0.7015  0.0755 -0.7774
 1242SOL     OW 3781   4.169   1.593   2.283  0.1160  0.6344  0.2401
 1242SOL    HW1 3782   4.218   1.649   2.222  0.1092  1.5755  1.0797
 1242SOL    HW2 3783   4.154   1.648   2.359 -0.9871 -0.1235  0.5867
 1243SOL     OW 3784   4.834   3.463   4.846 -0.8574  0.5173  0.2985
 1243SOL    HW1 3785   4.829   3.370   4.871 -0.7357  1.1416  2.9632
 1243SOL    HW2 3786   4.767   3.505   4.900 -0.9867  2.0040 -0.9549
 1244SOL     OW 3787   4.409   1.061   0.133 -0.9884 -0.0700 -0.4935
 1244SOL    HW1 3788   4.369   0.980   0.101 -2.3094  0.0196  0.8013
 1244SOL    HW2 3789   4.335   1.110   0.169  0.2455  0.2204  1.8079
 1245SOL     OW 3790   3.383   2.754   1.427 -0.2012 -0.5630  0.5324
 1245SOL    HW1 3791   3.384   2.670   1.381  0.7467 -0.2044 -0.1171
 1245SOL    HW2 3792   3.399   2.819   1.359  0.9635 -0.0012  1.3155
 1246SOL     OW 3793   0.829   0.361   3.903 -0.0895 -0.4635 -0.2358
 1246SOL    HW1 3794   0.819   0.395   3.991 -0.8105  0.1933 -0.5622
 1246SOL    HW2 3795   0.746   0.317   3.885  0.4324 -1.4861 -0.2146
 1247SOL     OW 3796   1.978   4.822   0.494  0.1328 -0.2257  0.9102
 1247SOL    HW1 3797   2.038   4.876   0.546 -1.1796 -0.2769  2.5689
 1247SOL    HW2 3798   1.993   4.733   0.526  1.8873 -0.8632 -1.4262
 1248SOL     OW 3799   4.327   4.204   0.627  0.6171 -0.1948 -0.3584
 1248SOL    HW1 3800   4.250   4.260   0.632  0.5212 -0.3583  0.0170
 1248SOL    HW2 3801   4.297   4.127   0.579  1.6709  1.6025 -4.3529
 1249SOL     OW 3802   3.646   4.399   4.634 -0.2385  0.7686  0.2410
 1249SOL    HW1 3803   3.554   4.412   4.658 -0.8046 -0.9983 -0.7583
 1249SOL    HW2 3804   3.652   4.430   4.544 -0.4828 -1.2577 -0.5226
 1250SOL     OW 3805   0.994   2.896   4.076  0.2117 -0.0393 -0.1019
 1250SOL    HW1 3806   0.973   2.930   4.163  0.3051 -1.2839  0.4231
 1250SOL    HW2 3807   1.080   2.856   4.086  0.0486 -0.5472 -0.6597
 1251SOL     OW 3808   0.464   0.706   2.066 -0.0487 -0.4656 -0.1337
 1251SOL    HW1 3809   0.552   0.730   2.036 -0.5870 -0.4074 -1.7363
 1251SOL    HW2 3810   0.450   0.760   2.144  2.4359 -2.5536  1.9568
 1252SOL     OW 3811   4.487   3.199   1.672 -0.7153  0.1930 -0.5539
 1252SOL    HW1 3812   4.553   3.167   1.733 -1.4711  0.1203  0.2578
 1252SOL    HW2 3813   4.426   3.248   1.727 -1.1200  0.5920 -1.3440
 1253SOL     OW 3814   1.398   2.856   4.386  0.0977 -0.0474 -0.0739
 1253SOL    HW1 3815   1.321   2.830   4.335 -1.1661  0.7946  1.3181
 1253SOL    HW2 3816   1.446   2.915   4.329  0.6323 -1.8183 -1.5800
 1254SOL     OW 3817   2.286   1.677   3.344  0.4419 -0.3454  0.6729
 1254SOL    HW1 3818   2.334   1.730   3.407 -1.4513  0.6517  1.3488
 1254SOL    HW2 3819   2.324   1.700   3.259  2.0553 -0.6338  1.2798
 1255SOL     OW 3820   1.341   1.601   3.847  0.0050 -0.0291 -0.2752
 1255SOL    HW1 3821   1.401   1.599   3.921 -1.5359  0.2748  1.0257
 1255SOL    HW2 3822   1.365   1.681   3.799  1.1606 -0.3542 -0.2766
 1256SOL     OW 3823   4.401   4.137   1.010  0.3639  0.2916  0.4444
 1256SOL    HW1 3824   4.340   4.175   1.074  0.0560 -0.2690  0.4900
 1256SOL    HW2 3825   4.362   4.053   0.987  1.8131 -0.7374  1.5421
 1257SOL     OW 3826   3.024   1.869   0.498 -0.5675  0.3965  0.2090
 1257SOL    HW1 3827   3.012   1.938   0.563  1.3756  1.3941 -0.4307
 1257SOL    HW2 3828   3.095   1.900   0.443 -1.8999 -0.5909 -2.2108
 1258SOL     OW 3829   2.598   1.578   1.351  0.1182 -0.2383  0.1292
 1258SOL    HW1 3830   2.643   1.497   1.375 -1.3410 -1.0366  0.2304
 1258SOL    HW2 3831   2.659   1.647   1.377  1.2705 -1.2768  0.2941
 1259SOL     OW 3832   2.560   0.756   4.305  0.0023  0.3894 -0.2423
 1259SOL    HW1 3833   2.470   0.780   4.281 -0.0030  0.7970  0.1771
 1259SOL    HW2 3834   2.612   0.778   4.227 -0.1452  0.8733 -0.2075
 1260SOL     OW 3835   4.609   0.525   4.501 -0.3394 -0.4507  0.0657
 1260SOL    HW1 3836   4.623   0.620   4.496 -0.1011 -0.4683  0.4274
 1260SOL    HW2 3837   4.545   0.508   4.431  0.4092 -0.1761 -0.7128
 1261SOL     OW 3838   3.408   3.902   0.918  0.4306 -0.2765  0.2704
 1261SOL    HW1 3839   3.449   3.843   0.855 -0.9572 -0.8807 -0.1135
 1261SOL    HW2 3840   3.389   3.982   0.868 -0.4235 -0.6542 -0.0275
 1262SOL     OW 3841   0.485   4.886   1.052 -1.2099  0.2223 -0.0169
 1262SOL    HW1 3842   0.472   4.884   1.147 -1.3297  0.7013 -0.0211
 1262SOL    HW2 3843   0.530   4.804   1.032  2.2962  1.7215  0.9425
 1263SOL     OW 3844   3.490   4.592   1.053 -0.6719 -0.1435 -0.2926
 1263SOL    HW1 3845   3.466   4.591   0.960  0.7884  0.7929 -0.7228
 1263SOL    HW2 3846   3.547   4.516   1.064  0.9423  0.9591 -0.7239
 1264SOL     OW 3847   0.888   3.173   2.703  0.0933  0.8638  0.4093
 1264SOL    HW1 3848   0.952   3.205   2.767 -1.0023  2.0445  0.9655
 1264SOL    HW2 3849   0.862   3.250   2.654 -0.1338  0.2116 -0.5181
 1265SOL     OW 3850   0.084   4.256   0.846 -0.0814  0.1924 -0.3778
 1265SOL    HW1 3851   0.116   4.189   0.907  0.3784 -0.7249 -1.5828
 1265SOL    HW2 3852   0.013   4.299   0.893  0.9466  0.2445  1.2161
 1266SOL     OW 3853   0.532   2.507  -0.015  0.3499 -0.4113  0.1219
 1266SOL    HW1 3854   0.539   2.460   0.069 -0.5195 -0.2022  0.3235
 1266SOL    HW2 3855   0.582   2.587  -0.002  0.0479 -0.2815  0.5260
 1267SOL     OW 3856   0.947   4.826   1.858 -0.1951 -0.2008  0.4952
 1267SOL    HW1 3857   0.932   4.737   1.888  0.0289  0.1900  1.8189
 1267SOL    HW2 3858   1.024   4.855   1.906 -0.4480  0.8090  0.3195
 1268SOL     OW 3859   1.538   3.216   3.582 -0.5643  0.2947 -0.0356
 1268SOL    HW1 3860   1.621   3.239   3.624 -0.7218  1.3397 -0.2644
 1268SOL    HW2 3861   1.492   3.162   3.646  0.9134 -1.6011 -0.4912
 1269SOL     OW 3862   2.125   1.450   4.046 -0.3542  0.2709 -0.9208
 1269SOL    HW1 3863   2.216   1.456   4.020 -0.9082  2.7031 -2.6174
 1269SOL    HW2 3864   2.108   1.531   4.095 -0.6378 -1.9709  3.0882
 1270SOL     OW 3865   2.263   0.512   2.071 -0.0485  0.1980  0.6575
 1270SOL    HW1 3866   2.282   0.601   2.100  1.0431  0.9817 -2.1482
 1270SOL    HW2 3867   2.347   0.480   2.037 -0.6336 -1.6111  0.7960
 1271SOL     OW 3868   2.805   3.470   4.851  0.0629 -0.1393  0.1546
 1271SOL    HW1 3869   2.803   3.531   4.925  2.2962  0.8360 -0.4884
 1271SOL    HW2 3870   2.772   3.522   4.777  0.3302 -0.2478 -0.0427
 1272SOL     OW 3871   3.180   0.105   1.051 -0.0469  0.4633 -0.6435
 1272SOL    HW1 3872   3.196   0.196   1.073 -1.4527  0.4397  0.6545
 1272SOL    HW2 3873   3.174   0.104   0.955  2.2174  1.2924 -0.8497
 1273SOL     OW 3874   3.887   0.026   1.292 -0.0884  0.2617  0.5754
 1273SOL    HW1 3875   3.918   0.111   1.259  1.1262 -0.7873 -1.1183
 1273SOL    HW2 3876   3.792   0.032   1.287 -0.1285 -0.3091 -4.8955
 1274SOL     OW 3877   1.915   3.788   4.770  0.5376 -0.5200 -0.4237
 1274SOL    HW1 3878   1.938   3.768   4.861  0.1379  0.6860 -0.0442
 1274SOL    HW2 3879   1.877   3.876   4.773 -1.0336 -1.1191 -1.5129
 1275SOL     OW 3880   0.576   3.261   3.532 -0.2463  0.3072  0.1865
 1275SOL    HW1 3881   0.632   3.334   3.505 -1.3126  0.4022 -2.0739
 1275SOL    HW2 3882   0.637   3.191   3.555  0.7851  1.6598  1.7985
 1276SOL     OW 3883   2.933   2.770   3.133 -0.2015 -0.3960 -0.1143
 1276SOL    HW1 3884   3.008   2.712   3.147 -0.7675 -0.8447  1.1678
 1276SOL    HW2 3885   2.886   2.731   3.059  0.3231 -0.6303 -0.3290
 1277SOL     OW 3886   0.871   4.149   2.020  0.2724 -0.5596 -0.6653
 1277SOL    HW1 3887   0.850   4.242   2.005  1.8722 -0.1559 -0.5634
 1277SOL    HW2 3888   0.804   4.101   1.972 -1.4291  0.6241  0.4054
 1278SOL     OW 3889   2.026   4.582   3.570 -0.1721  0.2824  0.4230
 1278SOL    HW1 3890   2.055   4.658   3.621 -1.4148  1.8616 -1.1023
 1278SOL    HW2 3891   2.101   4.560   3.515 -0.3853  1.6736 -0.4925
 1279SOL     OW 3892   2.468   4.386   2.797  0.2423  0.1237 -0.4936
 1279SOL    HW1 3893   2.395   4.395   2.859  0.1194  0.1078 -0.6347
 1279SOL    HW2 3894   2.501   4.475   2.787  0.8678 -0.0022  0.3159
 1280SOL     OW 3895   2.214   3.593   1.286  0.1013 -0.6877 -0.1288
 1280SOL    HW1 3896   2.284   3.573   1.349  0.7686  0.2795 -0.5382
 1280SOL    HW2 3897   2.225   3.527   1.217 -0.0638 -1.1907  0.3151
 1281SOL     OW 3898   2.186   0.401   2.304 -0.5149  0.6653  0.0687
 1281SOL    HW1 3899   2.091   0.407   2.313 -0.5257 -0.9274  1.3597
 1281SOL    HW2 3900   2.203   0.427   2.213 -2.0666  1.9287  0.1031
 1282SOL     OW 3901   0.661   3.057   4.140  0.0440 -0.9087 -0.0914
 1282SOL    HW1 3902   0.701   3.052   4.054 -1.5422  0.9018 -1.0156
 1282SOL    HW2 3903   0.661   2.967   4.173  3.8092 -1.1837 -0.4267
 1283SOL     OW 3904   0.636   4.677   0.983  0.6208  0.5279  0.0695
 1283SOL    HW1 3905   0.728   4.691   0.960  0.9420 -0.7888  0.4303
 1283SOL    HW2 3906   0.638   4.641   1.071 -0.1724 -0.3158 -0.2318
 1284SOL     OW 3907   1.829   4.749   3.465  0.1625 -0.0859  0.0528
 1284SOL    HW1 3908   1.877   4.685   3.518  0.6929 -0.4975 -0.8964
 1284SOL    HW2 3909   1.897   4.806   3.429 -0.3474  1.4013  1.3502
 1285SOL     OW 3910   3.407   2.909   2.963 -0.2867 -0.3909  0.5382
 1285SOL    HW1 3911   3.490   2.872   2.932 -0.3229 -1.8139  1.9678
 1285SOL    HW2 3912   3.382   2.852   3.036 -3.0453 -0.6343 -0.4853
 1286SOL     OW 3913   0.220   3.277   1.392  0.0580 -0.0540  0.0622
 1286SOL    HW1 3914   0.234   3.356   1.339  3.0020 -0.0665  0.6174
 1286SOL    HW2 3915   0.194   3.210   1.329  0.3298  0.7125 -0.8833
 1287SOL     OW 3916   0.082   4.915   0.165 -0.1403  0.3041  0.0260
 1287SOL    HW1 3917   0.175   4.895   0.176 -0.4854 -2.0713 -0.9509
 1287SOL    HW2 3918   0.080   4.979   0.094  0.6851 -0.3348 -0.5861
 1288SOL     OW 3919   4.974   1.312   4.126 -0.7419 -0.3017 -0.2747
 1288SOL    HW1 3920   4.958   1.382   4.188 -0.4219 -0.1364 -0.3744
 1288SOL    HW2 3921   4.926   1.237   4.161  0.8168 -0.7102  1.0949
 1289SOL     OW 3922   3.571   4.462   0.665 -0.2507 -0.3314  0.1852
 1289SOL    HW1 3923   3.535   4.467   0.576  0.3704  0.7314 -0.0304
 1289SOL    HW2 3924   3.498   4.484   0.722 -0.4458 -0.1753 -0.1213
 1290SOL     OW 3925   4.040   3.309   0.122  0.5265  0.7621  0.1678
 1290SOL    HW1 3926   3.951   3.287   0.094  0.5721  0.2990  0.3783
 1290SOL    HW2 3927   4.032   3.329   0.216  0.7292  0.2106  0.3049
 1291SOL     OW 3928   3.045   3.796   2.788  0.4523 -0.3935 -0.5908
 1291SOL    HW1 3929   2.957   3.830   2.771  1.3895  2.0900 -0.8235
 1291SOL    HW2 3930   3.069   3.834   2.872  0.7844 -2.2906  0.2289
 1292SOL     OW 3931   2.025   2.585   1.233 -0.2535 -0.1820  0.0070
 1292SOL    HW1 3932   1.945   2.537   1.256 -0.0016 -0.2795  0.6979
 1292SOL    HW2 3933   2.082   2.519   1.193 -0.9415  0.1241 -1.5269
 1293SOL     OW 3934   4.633   3.976   4.736 -0.6237 -0.8439  0.4994
 1293SOL    HW1 3935   4.623   3.897   4.683  3.7059 -1.4650  0.2011
 1293SOL    HW2 3936   4.676   3.946   4.816 -0.4390  0.9779  1.1358
 1294SOL     OW 3937   3.092   3.538   3.411 -0.6729  0.1857  0.1600
 1294SOL    HW1 3938   3.089   3.486   3.331 -2.1655 -0.8597  0.8510
 1294SOL    HW2 3939   3.181   3.527   3.443 -0.5461 -0.7718 -0.4673
 1295SOL     OW 3940   0.484   3.536   4.187  0.2173 -0.0383 -0.2690
 1295SOL    HW1 3941   0.460   3.515   4.097  0.1205  0.4255 -0.3565
 1295SOL    HW2 3942   0.578   3.516   4.191  0.2678  0.1302 -0.5345
 1296SOL     OW 3943   3.271   0.742   3.945  0.4127 -0.2513  0.4844
 1296SOL    HW1 3944   3.347   0.700   3.904  0.5917  1.5174 -1.1566
 1296SOL    HW2 3945   3.201   0.735   3.880 -0.1665  0.1085  1.0546
 1297SOL     OW 3946   3.910   1.360   2.435 -0.0777 -0.2222  0.3691
 1297SOL    HW1 3947   3.954   1.443   2.453  0.6835 -0.6768  0.6396
 1297SOL    HW2 3948   3.944   1.300   2.502  0.5720 -1.1789 -0.8000
 1298SOL     OW 3949   2.395   3.053   0.111  0.1025 -0.3288 -0.3262
 1298SOL    HW1 3950   2.431   3.141   0.113 -0.8828  0.2358 -3.1325
 1298SOL    HW2 3951   2.469   2.997   0.088  0.2226  0.1416 -1.1132
 1299SOL     OW 3952   0.709   3.423   2.341 -0.4357 -0.7336 -0.2368
 1299SOL    HW1 3953   0.619   3.392   2.344 -1.1324  1.2403  1.2154
 1299SOL    HW2 3954   0.702   3.518   2.350  1.8002 -0.5457  0.1290
 1300SOL     OW 3955   0.239   1.919   0.580 -0.4321 -0.2042 -0.0247
 1300SOL    HW1 3956   0.145   1.910   0.565 -0.6909  0.4909  1.0913
 1300SOL    HW2 3957   0.279   1.862   0.514 -1.6295 -0.5408 -0.4881
 1301SOL     OW 3958   3.591   2.311   1.149  0.2183 -0.4771  0.3853
 1301SOL    HW1 3959   3.604   2.401   1.119 -0.3245 -0.1930  0.9794
 1301SOL    HW2 3960   3.522   2.277   1.094 -1.1297  0.2063  1.5785
 1302SOL     OW 3961   3.864   0.761   2.290 -0.0987 -0.4294 -0.2292
 1302SOL    HW1 3962   3.825   0.731   2.208  0.4170  0.3301 -0.7708
 1302SOL    HW2 3963   3.819   0.712   2.358 -1.4456 -0.1449 -0.8849
 1303SOL     OW 3964   0.594   4.660   4.320  0.6868 -0.5375 -0.1157
 1303SOL    HW1 3965   0.582   4.579   4.270  0.5606 -0.4870 -0.1671
 1303SOL    HW2 3966   0.689   4.668   4.330  0.9899  1.1717 -3.2044
 1304SOL     OW 3967   2.481   2.770   3.364 -0.1844 -0.4087  0.6400
 1304SOL    HW1 3968   2.428   2.846   3.387  0.1421 -0.2351  0.8272
 1304SOL    HW2 3969   2.572   2.801   3.370 -0.0372  0.2898 -2.9384
 1305SOL     OW 3970   3.024   4.033   1.091  0.5210 -0.0806  0.3290
 1305SOL    HW1 3971   3.039   3.947   1.051 -1.8626  0.4902 -2.0841
 1305SOL    HW2 3972   3.015   4.093   1.017 -1.4412  1.5923  1.8123
 1306SOL     OW 3973   4.891   1.674   3.287  0.1224 -0.0634  0.3706
 1306SOL    HW1 3974   4.928   1.743   3.232 -0.3809 -0.1328 -0.0617
 1306SOL    HW2 3975   4.958   1.658   3.354 -0.0190  1.3333  0.8980
 1307SOL     OW 3976   1.378   1.576   1.131 -0.0248 -0.3183 -0.7099
 1307SOL    HW1 3977   1.419   1.530   1.204 -2.8456 -0.8229  0.6565
 1307SOL    HW2 3978   1.426   1.659   1.126  2.6157 -1.7335 -0.7410
 1308SOL     OW 3979   3.029   1.079   2.952  0.0082 -0.2680 -0.5517
 1308SOL    HW1 3980   2.955   1.031   2.915 -2.3251  1.1149  1.9647
 1308SOL    HW2 3981   3.101   1.015   2.954 -1.6237 -2.2404 -1.4618
 1309SOL     OW 3982   1.592   4.962   4.343  0.4254  0.5451 -0.6043
 1309SOL    HW1 3983   1.556   5.047   4.368  0.4632  0.7169 -1.1198
 1309SOL    HW2 3984   1.602   4.915   4.426  0.7463  1.1720 -0.2802
 1310SOL     OW 3985   0.999   2.819   3.784 -0.5000 -0.2544  0.3246
 1310SOL    HW1 3986   1.060   2.892   3.771  0.4304 -0.9534  0.6563
 1310SOL    HW2 3987   0.971   2.828   3.875 -1.0675  0.1815  0.1162
 1311SOL     OW 3988   0.513   1.102   4.133 -0.2796  0.6337  0.1326
 1311SOL    HW1 3989   0.594   1.152   4.148  0.4327  0.5685 -2.7717
 1311SOL    HW2 3990   0.455   1.164   4.089 -1.5832  0.4682  1.5652
 1312SOL     OW 3991   1.816   4.175   2.004  0.6208 -0.0499  0.1842
 1312SOL    HW1 3992   1.837   4.215   2.088  0.3612 -0.0284  0.2395
 1312SOL    HW2 3993   1.786   4.248   1.950  1.8058  0.1212 -0.2768
 1313SOL     OW 3994   1.672   2.515   1.759  0.3796  0.0131  0.0534
 1313SOL    HW1 3995   1.726   2.531   1.836 -0.3158  1.3267  0.2992
 1313SOL    HW2 3996   1.591   2.562   1.776  0.2193  0.3664 -1.4839
 1314SOL     OW 3997   1.985   2.744   3.031 -0.5966  0.2487 -0.5192
 1314SOL    HW1 3998   2.002   2.826   3.077  1.1709 -0.9013  1.0039
 1314SOL    HW2 3999   1.944   2.688   3.097 -0.7499 -0.4621 -1.2103
 1315SOL     OW 4000   2.852   0.845   3.178  0.0299 -0.3787  0.4663
 1315SOL    HW1 4001   2.858   0.940   3.166 -1.9709 -0.1444  1.0394
 1315SOL    HW2 4002   2.830   0.834   3.270  0.5801 -1.4282  0.4838
 1316SOL     OW 4003   2.843   3.909   3.767  0.2047 -0.3275  0.0917
 1316SOL    HW1 4004   2.853   3.860   3.849 -0.3221  0.6900  0.7888
 1316SOL    HW2 4005   2.749   3.923   3.759  0.3685  0.9852  0.1876
 1317SOL     OW 4006   1.583   4.192   3.401 -0.7890 -0.7138  0.1057
 1317SOL    HW1 4007   1.576   4.286   3.419 -0.6626 -0.2216 -2.1105
 1317SOL    HW2 4008   1.672   4.170   3.427 -0.4762  0.0255 -0.3064
 1318SOL     OW 4009   1.278   3.575   1.085 -0.0468 -0.0626 -0.0265
 1318SOL    HW1 4010   1.331   3.495   1.084 -0.3413 -0.3083 -2.3786
 1318SOL    HW2 4011   1.188   3.543   1.092 -0.1582  0.0260 -0.8830
 1319SOL     OW 4012   1.526   2.727   0.954  0.1379 -0.4624 -0.2015
 1319SOL    HW1 4013   1.561   2.767   1.034 -0.3279 -0.5337  0.0400
 1319SOL    HW2 4014   1.521   2.799   0.891  0.6318 -0.4322 -0.2143
 1320SOL     OW 4015   1.684   1.224   2.418  0.2407 -0.1504  0.0108
 1320SOL    HW1 4016   1.695   1.293   2.353  2.0104 -0.8858 -0.5395
 1320SOL    HW2 4017   1.763   1.171   2.410  0.0935 -0.7909  2.1555
 1321SOL     OW 4018   4.299   3.485   0.686  0.4628 -0.1824  0.0244
 1321SOL    HW1 4019   4.305   3.492   0.591  0.4221 -3.3650 -0.3269
 1321SOL    HW2 4020   4.247   3.561   0.712  1.5567  1.5033 -2.2882
 1322SOL     OW 4021   4.773   4.461   2.575  0.1585 -0.0524 -0.3242
 1322SOL    HW1 4022   4.855   4.442   2.621  1.8124  1.1953 -2.5541
 1322SOL    HW2 4023   4.764   4.389   2.512 -2.2304 -1.9078  1.9046
 1323SOL     OW 4024   1.017   0.750   3.996  0.2694 -0.3822 -0.0751
 1323SOL    HW1 4025   1.031   0.761   3.902  1.8708 -1.7758 -0.0514
 1323SOL    HW2 4026   1.099   0.713   4.028 -0.8523 -1.5754  1.5679
 1324SOL     OW 4027   4.464   1.072   2.703 -0.3026  0.2138 -0.3998
 1324SOL    HW1 4028   4.426   1.157   2.684  0.3900  1.1105  1.8769
 1324SOL    HW2 4029   4.433   1.050   2.790 -0.4868 -1.9161 -0.9422
 1325SOL     OW 4030   3.709   0.403   3.058 -0.0278  0.1318  0.7816
 1325SOL    HW1 4031   3.764   0.325   3.048  1.3510  1.2602 -1.2893
 1325SOL    HW2 4032   3.644   0.395   2.988 -0.1231  0.6467  0.8080
 1326SOL     OW 4033   3.221   4.412   3.770  0.3454  0.4380  0.2582
 1326SOL    HW1 4034   3.143   4.357   3.782  0.7603 -0.2433 -0.0984
 1326SOL    HW2 4035   3.285   4.376   3.830  1.0813 -0.3779 -0.9674
 1327SOL     OW 4036   2.969   4.901   2.989  0.6151  0.1414 -0.3342
 1327SOL    HW1 4037   2.985   4.807   2.979 -1.7160 -0.3050 -0.5320
 1327SOL    HW2 4038   3.038   4.943   2.937 -0.6548 -1.6141 -3.7306
 1328SOL     OW 4039   1.184   0.681   0.232  0.0022 -0.1182 -0.1120
 1328SOL    HW1 4040   1.173   0.589   0.207  0.3205  0.1444 -1.2407
 1328SOL    HW2 4041   1.195   0.678   0.327  3.6208 -1.6261 -0.4106
 1329SOL     OW 4042   1.567   4.925   3.509  0.5429  0.2141  0.0068
 1329SOL    HW1 4043   1.627   4.912   3.435  0.8583 -0.9572  0.4530
 1329SOL    HW2 4044   1.554   5.020   3.512  2.2899  0.4988 -0.1746
 1330SOL     OW 4045   1.037   3.485   0.577 -0.1050 -0.0681 -0.2326
 1330SOL    HW1 4046   1.087   3.556   0.618 -1.8185  2.6113 -2.4377
 1330SOL    HW2 4047   1.056   3.493   0.483  0.2354 -3.1138 -0.5258
 1331SOL     OW 4048   3.911   2.941   0.988  0.0215 -0.6185  0.0264
 1331SOL    HW1 4049   3.938   2.950   0.897  1.5029 -0.4083  0.4559
 1331SOL    HW2 4050   3.988   2.969   1.039 -1.4029  1.1622  1.3505
 1332SOL     OW 4051   1.559   2.931   0.771  0.3393 -0.2481 -0.4253
 1332SOL    HW1 4052   1.626   2.970   0.715  1.7695 -0.3681  1.1624
 1332SOL    HW2 4053   1.480   2.932   0.716  1.1635  1.5869 -1.6902
 1333SOL     OW 4054   3.820   2.180   1.186 -0.2801 -0.1404 -0.6376
 1333SOL    HW1 4055   3.863   2.224   1.259  1.0034 -1.8575 -0.2694
 1333SOL    HW2 4056   3.736   2.224   1.177  0.2987  1.3386  0.6476
 1334SOL     OW 4057   3.142   0.904   4.207  0.1499 -0.1093  0.1339
 1334SOL    HW1 4058   3.226   0.878   4.169  1.3220  1.8263  1.2466
 1334SOL    HW2 4059   3.132   0.848   4.284  0.3422 -0.4564 -0.0929
 1335SOL     OW 4060   4.468   2.294   2.287  0.4091 -0.3961 -0.8728
 1335SOL    HW1 4061   4.376   2.315   2.304  0.8156  0.3037  0.5842
 1335SOL    HW2 4062   4.465   2.212   2.237 -1.0367  0.3228 -2.0709
 1336SOL     OW 4063   1.050   4.300   3.777  0.6511 -0.7701  0.5299
 1336SOL    HW1 4064   1.104   4.354   3.835 -1.2618  1.8845  0.0311
 1336SOL    HW2 4065   0.981   4.265   3.834 -0.9218  1.4094  0.0899
 1337SOL     OW 4066   3.337   3.273   4.117 -0.4680 -0.0963 -0.5721
 1337SOL    HW1 4067   3.361   3.358   4.154  0.9412 -0.7686  0.1309
 1337SOL    HW2 4068   3.330   3.215   4.192 -2.2442 -0.4468 -0.9678
 1338SOL     OW 4069   0.338   1.235   1.877  0.2802  0.1943 -0.1231
 1338SOL    HW1 4070   0.251   1.257   1.911  0.6572  0.2842  0.8111
 1338SOL    HW2 4071   0.391   1.312   1.896  1.2951 -0.9466  2.0487
 1339SOL     OW 4072   3.701   1.682   0.568  0.7012 -0.1997 -0.3135
 1339SOL    HW1 4073   3.652   1.614   0.615  1.0320 -0.5647 -0.4905
 1339SOL    HW2 4074   3.698   1.655   0.477  0.6419  0.1452 -0.4136
 1340SOL     OW 4075   2.048   1.602   3.482 -0.6118 -0.6216 -0.3511
 1340SOL    HW1 4076   2.040   1.566   3.570  1.0662 -1.4173 -0.4845
 1340SOL    HW2 4077   2.134   1.643   3.480 -1.5326  1.4426 -0.9444
 1341SOL     OW 4078   1.373   0.400   3.562  0.1601  0.1140 -0.4307
 1341SOL    HW1 4079   1.424   0.478   3.586  0.5035 -0.1573 -0.2635
 1341SOL    HW2 4080   1.370   0.348   3.642 -1.5175  0.7314 -0.0706
 1342SOL     OW 4081   3.346   2.780   3.686  0.1846 -0.5979 -0.3756
 1342SOL    HW1 4082   3.313   2.788   3.775 -0.6237 -0.6406 -0.6707
 1342SOL    HW2 4083   3.429   2.829   3.687  0.6272 -1.3271  0.6158
 1343SOL     OW 4084   0.196   2.813   1.097 -0.5839  0.0119  0.3475
 1343SOL    HW1 4085   0.129   2.749   1.118 -0.3040 -0.0899  0.9487
 1343SOL    HW2 4086   0.261   2.803   1.167  0.9378 -1.1198 -1.1475
 1344SOL     OW 4087   2.600   4.899   1.223 -0.3677  0.1016  0.6666
 1344SOL    HW1 4088   2.549   4.961   1.171 -0.2316  0.2029  0.6519
 1344SOL    HW2 4089   2.672   4.873   1.165 -0.3206  0.0717  0.7387
 1345SOL     OW 4090   3.679   1.130   1.513  0.3388 -0.0691  0.2986
 1345SOL    HW1 4091   3.766   1.109   1.479  1.1944 -0.5146  2.6102
 1345SOL    HW2 4092   3.695   1.191   1.584 -1.1418 -0.8182  1.3305
 1346SOL     OW 4093   2.297   3.569   0.333 -0.0673 -0.2223  0.0609
 1346SOL    HW1 4094   2.259   3.509   0.269  0.8142  0.1721 -0.8508
 1346SOL    HW2 4095   2.224   3.592   0.390 -0.6112 -1.5008 -0.0709
 1347SOL     OW 4096   3.201   0.592   0.507 -0.1905  0.5022  0.5754
 1347SOL    HW1 4097   3.207   0.503   0.542 -0.7761  0.0017 -0.5381
 1347SOL    HW2 4098   3.273   0.599   0.446 -0.9703  0.2860 -0.3901
 1348SOL     OW 4099   4.357   3.460   3.546  0.4300  0.1325  0.0503
 1348SOL    HW1 4100   4.278   3.475   3.494  0.3608  0.8731  0.3524
 1348SOL    HW2 4101   4.429   3.493   3.492  0.4725 -0.0771 -0.0187
 1349SOL     OW 4102   2.020   0.335   2.978  0.2634  0.2307  0.0705
 1349SOL    HW1 4103   2.022   0.407   2.915 -0.5905  0.1930 -0.0161
 1349SOL    HW2 4104   1.967   0.368   3.051  1.6626  0.4551  1.0100
 1350SOL     OW 4105   4.301   3.212   4.027 -0.0675  0.3156 -0.0827
 1350SOL    HW1 4106   4.311   3.249   3.939 -0.9481 -2.1733 -1.3367
 1350SOL    HW2 4107   4.346   3.128   4.023  0.8519  0.6158  2.2528
 1351SOL     OW 4108   3.356   0.232   1.854  0.0333 -0.4211 -0.0532
 1351SOL    HW1 4109   3.300   0.245   1.777 -0.6845  0.7944  0.6336
 1351SOL    HW2 4110   3.297   0.198   1.921  0.5354 -0.9572  0.1206
 1352SOL     OW 4111   2.467   2.013   4.788 -0.2679  0.7345  0.1873
 1352SOL    HW1 4112   2.406   2.010   4.862 -0.8702 -4.0637 -0.1930
 1352SOL    HW2 4113   2.412   2.034   4.713 -1.1161 -1.3301  0.1769
 1353SOL     OW 4114   3.545   0.623   0.840  0.7261  0.1500  0.0736
 1353SOL    HW1 4115   3.575   0.669   0.918  0.0867 -0.4633  0.7071
 1353SOL    HW2 4116   3.599   0.657   0.769  0.7322  1.3573  0.6325
 1354SOL     OW 4117   0.619   4.397   0.514 -0.5374 -0.3708  0.1279
 1354SOL    HW1 4118   0.536   4.377   0.469 -1.1386  0.2900  0.9240
 1354SOL    HW2 4119   0.653   4.473   0.468 -1.6333  0.9086  1.3433
 1355SOL     OW 4120   4.780   2.367   2.194  0.0130  0.1486  0.6079
 1355SOL    HW1 4121   4.815   2.305   2.130  1.0883 -0.6156  1.8658
 1355SOL    HW2 4122   4.686   2.367   2.179  0.3778  1.7030 -2.4292
 1356SOL     OW 4123   1.561   3.679   4.616  0.1288 -0.3450  0.3479
 1356SOL    HW1 4124   1.561   3.757   4.560  2.7678 -0.9453 -0.6211
 1356SOL    HW2 4125   1.507   3.616   4.568  0.8496 -0.2396 -0.6477
 1357SOL     OW 4126   1.944   1.305   1.937  0.5090 -0.0666 -0.8274
 1357SOL    HW1 4127   2.000   1.324   1.863  1.0402 -0.2008 -0.4667
 1357SOL    HW2 4128   1.976   1.221   1.972 -0.4482 -0.5741 -1.1194
 1358SOL     OW 4129   0.336   4.967   2.085  0.5914  0.2418 -0.4825
 1358SOL    HW1 4130   0.362   4.885   2.043 -0.2980 -0.0252 -0.5327
 1358SOL    HW2 4131   0.249   4.949   2.121  0.5613  1.0371 -0.1362
 1359SOL     OW 4132   4.235   1.942   1.409 -0.2110  0.1512  0.0851
 1359SOL    HW1 4133   4.320   1.971   1.376  0.5013 -0.9769  0.8741
 1359SOL    HW2 4134   4.226   1.988   1.493  1.0279 -1.9576  1.4535
 1360SOL     OW 4135   4.496   1.015   3.516 -0.6586  0.0665  0.6922
 1360SOL    HW1 4136   4.460   1.034   3.602 -1.2910 -2.5322  1.0835
 1360SOL    HW2 4137   4.581   0.974   3.535 -1.2536 -1.4510  0.1535
 1361SOL     OW 4138   1.153   3.154   0.016 -0.2647 -0.8942  0.3516
 1361SOL    HW1 4139   1.075   3.125   0.062 -0.4550 -0.2591  0.4420
 1361SOL    HW2 4140   1.153   3.249   0.026  1.6929 -1.0192  2.2442
 1362SOL     OW 4141   0.146   3.413   4.843 -0.5895 -0.5604 -0.4456
 1362SOL    HW1 4142   0.169   3.369   4.925 -2.0751 -0.1856  0.2129
 1362SOL    HW2 4143   0.051   3.426   4.849 -0.4048  1.5225 -1.2009
 1363SOL     OW 4144   4.745   1.974   4.813 -0.3280 -0.5310  0.0821
 1363SOL    HW1 4145   4.653   1.948   4.819  0.1775 -2.1749  3.0746
 1363SOL    HW2 4146   4.760   2.028   4.890  1.3269 -0.7932 -0.0107
 1364SOL     OW 4147   0.301   3.870   3.737  0.0830  0.1084 -0.4165
 1364SOL    HW1 4148   0.295   3.847   3.644 -3.1002  0.1946 -0.3516
 1364SOL    HW2 4149   0.234   3.816   3.779  1.6255 -0.1141  1.9193
 1365SOL     OW 4150   3.291   1.649   2.473  0.0377 -0.3427  1.0523
 1365SOL    HW1 4151   3.335   1.640   2.558 -1.6158  0.6253  2.0740
 1365SOL    HW2 4152   3.272   1.743   2.466 -0.3037 -0.4927 -0.1404
 1366SOL     OW 4153   3.551   4.787   3.521 -0.2539 -0.7104  0.4717
 1366SOL    HW1 4154   3.639   4.801   3.556 -1.3183  2.9662  2.2050
 1366SOL    HW2 4155   3.554   4.822   3.432  0.1576 -1.1860  0.2923
 1367SOL     OW 4156   3.211   2.836   3.917  0.4009  0.3777  0.2077
 1367SOL    HW1 4157   3.125   2.808   3.886  0.4422  0.6421 -0.1529
 1367SOL    HW2 4158   3.196   2.923   3.955  0.5834  0.6138 -0.2518
 1368SOL     OW 4159   1.872   3.736   1.629 -0.7025 -0.0088 -0.8465
 1368SOL    HW1 4160   1.914   3.757   1.546 -1.4962  1.9147 -0.8182
 1368SOL    HW2 4161   1.798   3.797   1.634 -1.8750 -1.4611  0.3409
 1369SOL     OW 4162   0.429   3.701   2.896 -0.2991  0.2544  0.4276
 1369SOL    HW1 4163   0.487   3.755   2.949 -0.3346 -0.0992  0.8272
 1369SOL    HW2 4164   0.467   3.613   2.899 -1.5178 -0.2695  1.7363
 1370SOL     OW 4165   1.957   3.876   0.993  0.0534  0.2593  0.4405
 1370SOL    HW1 4166   2.031   3.820   1.018 -0.2231 -0.4052 -0.2119
 1370SOL    HW2 4167   1.964   3.951   1.052  1.9432  0.7740 -0.3603
 1371SOL     OW 4168   4.504   3.985   2.804  0.1853  0.7006  0.2542
 1371SOL    HW1 4169   4.480   3.958   2.892  0.1592  0.8726  0.3017
 1371SOL    HW2 4170   4.422   3.985   2.755  0.3450 -0.3091 -0.0220
 1372SOL     OW 4171   0.793   1.963   1.435  0.3355  0.0662 -0.2795
 1372SOL    HW1 4172   0.820   2.049   1.466  1.0683 -0.4989  0.6914
 1372SOL    HW2 4173   0.807   1.966   1.340  0.5870  0.9272 -0.2204
 1373SOL     OW 4174   3.033   2.220   3.951  0.1154 -0.0387  0.5672
 1373SOL    HW1 4175   3.041   2.270   3.870 -1.5874  0.8638  0.9024
 1373SOL    HW2 4176   2.938   2.206   3.962  0.4376 -2.3502  1.1018
 1374SOL     OW 4177   3.065   0.637   4.137 -0.0896 -0.0522 -0.4842
 1374SOL    HW1 4178   3.090   0.728   4.123 -0.1129 -0.1973 -1.6326
 1374SOL    HW2 4179   3.032   0.634   4.227 -0.8507  1.2455 -0.6899
 1375SOL     OW 4180   4.251   3.897   2.677  0.2523 -0.0623 -0.6168
 1375SOL    HW1 4181   4.200   3.881   2.757  1.0182  0.0908 -0.0843
 1375SOL    HW2 4182   4.220   3.983   2.646 -0.4577 -0.3829 -0.8150
 1376SOL     OW 4183   4.290   4.561   0.031  0.0954  0.1674  0.0202
 1376SOL    HW1 4184   4.376   4.520   0.023  1.0780  2.1471 -0.2428
 1376SOL    HW2 4185   4.300   4.647  -0.010 -1.7977  0.7616  0.6693
 1377SOL     OW 4186   2.279   0.494   4.582 -0.7628 -0.5564  0.3872
 1377SOL    HW1 4187   2.333   0.511   4.505 -1.9697 -0.4118 -0.4502
 1377SOL    HW2 4188   2.292   0.400   4.599 -0.5573 -0.6108 -0.0435
 1378SOL     OW 4189   3.727   1.310   3.384  0.3377  0.0386  0.4399
 1378SOL    HW1 4190   3.778   1.302   3.303  0.4098  0.7208  0.4055
 1378SOL    HW2 4191   3.791   1.295   3.454  0.7321  1.4122  0.4113
 1379SOL     OW 4192   4.087   0.900   4.123 -0.3728  0.3395 -0.0158
 1379SOL    HW1 4193   4.162   0.953   4.096 -0.9758  1.1923 -0.0428
 1379SOL    HW2 4194   4.069   0.844   4.047  0.9953 -0.7674  0.4333
 1380SOL     OW 4195   1.454   3.300   4.340  0.1086  0.0474 -0.5926
 1380SOL    HW1 4196   1.510   3.367   4.300  1.7464  0.4437  2.1159
 1380SOL    HW2 4197   1.433   3.334   4.427  0.0556 -2.4090  0.4583
 1381SOL     OW 4198   4.638   1.753   1.974 -0.5599  0.6833 -0.0113
 1381SOL    HW1 4199   4.588   1.703   2.038 -0.4523  0.8098  0.1724
 1381SOL    HW2 4200   4.609   1.719   1.889 -0.3086  0.1382  0.1159
 1382SOL     OW 4201   0.419   1.999   2.858 -0.1344  0.2690  0.0572
 1382SOL    HW1 4202   0.472   2.069   2.896  1.6262 -0.8201 -0.2536
 1382SOL    HW2 4203   0.372   1.961   2.932 -1.0387  1.6969  0.2376
 1383SOL     OW 4204   3.584   4.968   3.008  0.8190  0.7525 -0.3475
 1383SOL    HW1 4205   3.493   4.991   2.992  0.8730  1.1294 -0.1210
 1383SOL    HW2 4206   3.609   4.916   2.931  1.2550  3.0764 -1.9102
 1384SOL     OW 4207   3.136   4.468   1.404 -0.0251  0.0299  0.3269
 1384SOL    HW1 4208   3.171   4.549   1.367  0.2446  0.6329  1.8221
 1384SOL    HW2 4209   3.200   4.401   1.380  0.3184  0.4653  0.0049
 1385SOL     OW 4210   2.451   2.515   0.822 -0.3234 -0.4926 -0.3977
 1385SOL    HW1 4211   2.522   2.578   0.834  0.2989 -1.3272  0.5015
 1385SOL    HW2 4212   2.393   2.556   0.758 -0.2105  1.2225  0.5299
 1386SOL     OW 4213   0.042   4.912   1.134  0.2488 -0.3758  0.4184
 1386SOL    HW1 4214  -0.034   4.964   1.108  1.3007  1.1478  0.2889
 1386SOL    HW2 4215   0.050   4.846   1.065  1.1633  1.7022 -1.5758
 1387SOL     OW 4216   1.755   1.024   3.544 -0.7917 -0.3004  0.1949
 1387SOL    HW1 4217   1.705   1.104   3.528  0.1002  0.2951  0.2897
 1387SOL    HW2 4218   1.713   0.983   3.620 -0.9206  0.3671  0.4856
 1388SOL     OW 4219   2.914   4.055   4.162 -0.5688  0.5237 -0.3491
 1388SOL    HW1 4220   3.004   4.087   4.161  0.2725 -1.6738 -0.2231
 1388SOL    HW2 4221   2.879   4.083   4.247  0.8782 -0.7541  0.7139
 1389SOL     OW 4222   3.030   1.657   3.160  0.1282 -0.1052 -0.0815
 1389SOL    HW1 4223   3.001   1.620   3.076  1.3878  0.4733 -0.7949
 1389SOL    HW2 4224   2.951   1.697   3.197 -0.7008 -1.3712 -0.4288
 1390SOL     OW 4225   3.769   2.893   1.728 -0.0604 -0.3184 -0.2414
 1390SOL    HW1 4226   3.860   2.897   1.758 -0.3863  1.1635  0.6576
 1390SOL    HW2 4227   3.718   2.924   1.802 -1.1518  0.5735 -1.3191
 1391SOL     OW 4228   2.052   3.976   2.011  0.5074  0.0524  0.2140
 1391SOL    HW1 4229   2.002   3.986   1.930  0.8404  0.2113  0.0233
 1391SOL    HW2 4230   2.074   4.066   2.037 -0.9565  0.1266  1.3554
 1392SOL     OW 4231   4.562   2.045   1.661  0.4825  0.1050  0.0236
 1392SOL    HW1 4232   4.539   2.096   1.583  0.5264 -1.2518 -0.9346
 1392SOL    HW2 4233   4.490   2.060   1.722 -0.8220 -0.6752 -1.2534
 1393SOL     OW 4234   1.226   2.455   1.725 -0.1819  0.1644  0.2168
 1393SOL    HW1 4235   1.251   2.543   1.694  1.0278 -0.4764 -0.7699
 1393SOL    HW2 4236   1.131   2.454   1.722 -0.1900  1.2517 -0.3855
 1394SOL     OW 4237   2.045   0.426   0.813 -0.2996 -0.3309  0.2158
 1394SOL    HW1 4238   2.045   0.517   0.844 -0.7832  0.1610 -1.1867
 1394SOL    HW2 4239   2.126   0.418   0.762 -0.9834 -0.2390 -0.9064
 1395SOL     OW 4240   4.736   2.602   1.797 -0.1361 -0.3435  0.5226
 1395SOL    HW1 4241   4.724   2.569   1.708  0.9289 -0.0034  0.2261
 1395SOL    HW2 4242   4.717   2.696   1.791 -1.5174 -0.5656  0.9968
 1396SOL     OW 4243   4.188   2.764   4.590 -0.5066 -0.2264 -0.6076
 1396SOL    HW1 4244   4.174   2.833   4.526  1.0426  0.3938 -0.3222
 1396SOL    HW2 4245   4.267   2.790   4.637 -0.5396 -1.6161  0.2919
 1397SOL     OW 4246   2.539   1.526   4.288  0.5477  0.4409  0.3276
 1397SOL    HW1 4247   2.610   1.478   4.332  1.2475  1.2894  0.1420
 1397SOL    HW2 4248   2.517   1.597   4.349  0.1048  0.4043  0.2164
 1398SOL     OW 4249   1.370   0.876   2.174  0.0361  0.2206 -0.4799
 1398SOL    HW1 4250   1.279   0.848   2.178  0.5425 -1.6791 -1.1487
 1398SOL    HW2 4251   1.400   0.849   2.087  1.9576 -1.7134  0.6748
 1399SOL     OW 4252   3.946   0.549   1.280  0.6599  0.4876  0.2368
 1399SOL    HW1 4253   4.015   0.513   1.223  0.2012 -0.7498  0.4381
 1399SOL    HW2 4254   3.936   0.483   1.349 -2.4744 -0.6618 -1.1366
 1400SOL     OW 4255   3.886   0.407   3.975  0.1927  0.5135  0.2714
 1400SOL    HW1 4256   3.860   0.324   3.934  0.9369 -0.1441  1.1153
 1400SOL    HW2 4257   3.967   0.387   4.021  2.2578  2.4634 -2.1689
 1401SOL     OW 4258   2.150   3.127   4.671  0.7976  0.6717  0.8041
 1401SOL    HW1 4259   2.084   3.164   4.729 -0.6507  1.3971 -1.1663
 1401SOL    HW2 4260   2.160   3.192   4.601  0.4220 -1.2648 -1.1816
 1402SOL     OW 4261   2.432   1.346   4.767  0.4493  0.1043 -0.5971
 1402SOL    HW1 4262   2.496   1.411   4.795 -0.3382  0.1818  1.1933
 1402SOL    HW2 4263   2.483   1.280   4.720  1.8565  0.1478  0.8035
 1403SOL     OW 4264   0.800   1.577   3.105  0.3445 -0.6012 -0.8079
 1403SOL    HW1 4265   0.849   1.642   3.053  1.0088 -0.2125  0.2713
 1403SOL    HW2 4266   0.865   1.510   3.126  0.0890 -0.7294 -0.4313
 1404SOL     OW 4267   3.759   4.098   1.293  0.2159 -0.2918  0.5800
 1404SOL    HW1 4268   3.814   4.173   1.315  0.3880  0.4820 -2.2075
 1404SOL    HW2 4269   3.676   4.136   1.265  0.0755 -1.1608 -0.2405
 1405SOL     OW 4270   1.178   3.134   4.535  0.2922  0.3930  0.4399
 1405SOL    HW1 4271   1.218   3.123   4.621 -0.3177 -0.3307  0.6329
 1405SOL    HW2 4272   1.169   3.229   4.526 -0.0530  0.4604  1.3679
 1406SOL     OW 4273   3.047   3.856   2.244  0.1261 -0.1703  0.1499
 1406SOL    HW1 4274   2.979   3.904   2.198 -1.2936 -1.0168  1.2859
 1406SOL    HW2 4275   3.005   3.773   2.269  1.2798 -0.3255  1.6952
 1407SOL     OW 4276   1.505   2.474   1.397  0.0819 -0.9120  0.6866
 1407SOL    HW1 4277   1.500   2.386   1.434 -0.5620 -1.4217 -0.5594
 1407SOL    HW2 4278   1.473   2.464   1.307  0.7660  0.4440  0.2684
 1408SOL     OW 4279   4.339   1.824   2.206  0.0380  0.2990  0.6238
 1408SOL    HW1 4280   4.400   1.856   2.273  0.2711  2.8547 -0.6956
 1408SOL    HW2 4281   4.305   1.903   2.165 -0.6122 -1.1529 -1.8352
 1409SOL     OW 4282   2.433   4.406   1.246  0.0213 -0.0694 -0.1503
 1409SOL    HW1 4283   2.431   4.495   1.212  0.3289 -0.4431 -1.2202
 1409SOL    HW2 4284   2.511   4.402   1.301  0.9767 -0.1086 -1.4452
 1410SOL     OW 4285   0.236   1.100   0.381  0.3791 -0.2182  0.4730
 1410SOL    HW1 4286   0.255   1.044   0.456  0.5231  1.2083  1.5492
 1410SOL    HW2 4287   0.262   1.049   0.305  0.0065 -1.7965  1.3725
 1411SOL     OW 4288   0.906   3.041   2.470  0.3933  0.3169  0.3637
 1411SOL    HW1 4289   0.907   3.069   2.561 -2.6770  0.8347  0.3384
 1411SOL    HW2 4290   0.895   3.121   2.419 -4.3853 -0.2520  0.0565
 1412SOL     OW 4291   1.095   4.263   4.481 -0.2657 -0.1006  0.0854
 1412SOL    HW1 4292   1.170   4.303   4.526 -0.8327 -0.3568  1.2877
 1412SOL    HW2 4293   1.028   4.255   4.548 -2.6651  3.1961 -1.5998
 1413SOL     OW 4294   3.763   3.243   4.589  0.5369 -0.0469  0.1649
 1413SOL    HW1 4295   3.849   3.244   4.549 -0.0060 -0.0103 -1.0377
 1413SOL    HW2 4296   3.734   3.152   4.581  0.3008  0.0237  0.2035
 1414SOL     OW 4297   4.551   4.256   0.772 -0.4201  0.1716 -0.0827
 1414SOL    HW1 4298   4.505   4.211   0.843 -0.8890  1.6523  0.6100
 1414SOL    HW2 4299   4.483   4.272   0.706  0.4996 -3.4261 -2.1333
 1415SOL     OW 4300   1.455   1.527   0.355 -0.1934 -0.3038  0.0461
 1415SOL    HW1 4301   1.441   1.521   0.449 -1.2289 -0.2625 -0.0901
 1415SOL    HW2 4302   1.523   1.462   0.336  0.3920  0.0485  0.8837
 1416SOL     OW 4303   2.998   0.446   3.628  0.2332 -0.1627  0.4863
 1416SOL    HW1 4304   2.966   0.412   3.712  1.7380 -0.1467  1.0945
 1416SOL    HW2 4305   3.005   0.369   3.573 -1.5668 -0.0681  0.0617
 1417SOL     OW 4306   4.754   3.027   2.806  0.1600  0.7323 -0.2605
 1417SOL    HW1 4307   4.780   2.939   2.832 -3.4581 -0.4469 -0.1511
 1417SOL    HW2 4308   4.832   3.063   2.763  2.2800 -1.8574  1.1218
 1418SOL     OW 4309   4.243   2.843   0.903 -0.9254 -0.6432  0.3934
 1418SOL    HW1 4310   4.294   2.913   0.944  0.0808 -2.0273  1.6262
 1418SOL    HW2 4311   4.164   2.886   0.873  0.9200  1.6326 -1.6353
 1419SOL     OW 4312   2.050   2.321   0.544  0.5581 -0.4982  0.3401
 1419SOL    HW1 4313   2.143   2.299   0.538  0.9229  0.8798  0.6197
 1419SOL    HW2 4314   2.004   2.243   0.511  1.8391 -0.7014 -1.0418
 1420SOL     OW 4315   4.720   0.448   0.340  0.6830  0.0699 -0.1577
 1420SOL    HW1 4316   4.765   0.525   0.303 -0.7535 -0.4735 -3.4528
 1420SOL    HW2 4317   4.757   0.438   0.427  2.7487  2.9932 -0.5382
 1421SOL     OW 4318   1.260   0.774   3.048  0.0626 -0.0072 -0.2661
 1421SOL    HW1 4319   1.260   0.678   3.059 -2.2638  0.1418  1.7819
 1421SOL    HW2 4320   1.255   0.808   3.137 -1.6562  1.9516 -1.0574
 1422SOL     OW 4321   0.542   4.346   4.616 -0.2214  0.5168  0.4697
 1422SOL    HW1 4322   0.490   4.350   4.535  0.9092  1.5705 -0.2471
 1422SOL    HW2 4323   0.627   4.313   4.587 -0.3779 -0.9287  1.5788
 1423SOL     OW 4324   1.274   3.218   0.817  0.0285  0.2120  0.0940
 1423SOL    HW1 4325   1.266   3.178   0.903  0.8066 -1.6540 -0.6533
 1423SOL    HW2 4326   1.366   3.243   0.810 -0.3980  2.0720  0.4738
 1424SOL     OW 4327   1.911   4.539   2.560  0.0864  0.1609 -0.2312
 1424SOL    HW1 4328   1.978   4.607   2.551  0.9825 -0.5881  0.5222
 1424SOL    HW2 4329   1.954   4.470   2.610 -1.5531  0.0536  1.1093
 1425SOL     OW 4330   0.685   2.221   2.520 -0.3949 -0.5202 -0.4926
 1425SOL    HW1 4331   0.595   2.192   2.537 -0.4286  0.0958  0.4468
 1425SOL    HW2 4332   0.707   2.180   2.436 -0.6520 -2.7405  0.4392
 1426SOL     OW 4333   3.368   0.421   4.049 -0.5691 -0.6949 -0.5272
 1426SOL    HW1 4334   3.425   0.347   4.027  2.4595  0.8416  1.4120
 1426SOL    HW2 4335   3.396   0.490   3.989  0.4710  0.3962  1.1389
 1427SOL     OW 4336   4.923   0.142   3.070  0.1966 -0.1990  0.4452
 1427SOL    HW1 4337   4.981   0.180   3.003  0.8009 -1.2994  0.3219
 1427SOL    HW2 4338   4.839   0.186   3.056  0.8369  1.0137  0.2503
 1428SOL     OW 4339   0.092   4.353   4.202  0.0989  1.0620 -0.0698
 1428SOL    HW1 4340   0.077   4.409   4.126  0.8079  0.7303 -0.4695
 1428SOL    HW2 4341   0.138   4.409   4.264  1.1660  0.8439 -0.6260
 1429SOL     OW 4342   3.569   3.773   4.094 -0.2126  0.6601 -0.5059
 1429SOL    HW1 4343   3.536   3.783   4.183 -1.2448  1.6165 -0.9643
 1429SOL    HW2 4344   3.651   3.725   4.103 -0.9572 -0.4223  0.8351
 1430SOL     OW 4345   3.662   4.075   3.669 -0.0876 -0.1674  0.6331
 1430SOL    HW1 4346   3.588   4.129   3.640  0.2598 -1.0025 -2.1260
 1430SOL    HW2 4347   3.622   4.005   3.720 -1.3065 -0.7558 -1.0448
 1431SOL     OW 4348   4.149   2.987   3.669 -0.1058  0.3548 -0.5553
 1431SOL    HW1 4349   4.124   2.895   3.660  1.6959 -0.2683  0.4027
 1431SOL    HW2 4350   4.180   3.013   3.582 -0.0420 -0.1246 -0.6775
 1432SOL     OW 4351   0.438   3.338   0.385  0.1961 -0.1806  0.4116
 1432SOL    HW1 4352   0.411   3.254   0.348  2.4938 -0.2166 -1.4205
 1432SOL    HW2 4353   0.499   3.315   0.455  0.3449 -0.0511  0.3254
 1433SOL     OW 4354   2.107   4.139   4.877 -0.1913  0.0684 -0.0316
 1433SOL    HW1 4355   2.026   4.100   4.845 -0.6307 -0.2869  1.4309
 1433SOL    HW2 4356   2.156   4.161   4.798 -2.3850  1.8271 -1.0298
 1434SOL     OW 4357   3.756   3.611   3.658  0.2170  0.1445 -0.3384
 1434SOL    HW1 4358   3.667   3.640   3.635  0.2520  0.9421  0.4637
 1434SOL    HW2 4359   3.746   3.519   3.683  0.1523 -0.7544 -3.3213
 1435SOL     OW 4360   4.694   3.899   3.336 -0.2097  0.3756  0.1108
 1435SOL    HW1 4361   4.662   3.879   3.425  1.2361  0.0420  0.5936
 1435SOL    HW2 4362   4.781   3.936   3.350  0.5731 -0.8373 -1.2051
 1436SOL     OW 4363   2.250   1.000   0.434  0.1802 -0.3480 -0.3168
 1436SOL    HW1 4364   2.186   0.947   0.482 -1.3266  0.2669 -1.5727
 1436SOL    HW2 4365   2.335   0.969   0.466 -0.7135 -1.4384  1.1487
 1437SOL     OW 4366   1.946   1.762   3.888  0.0220  0.1318  0.1115
 1437SOL    HW1 4367   1.888   1.838   3.885  1.2155  1.0530 -0.3016
 1437SOL    HW2 4368   2.030   1.797   3.918  0.1930 -1.3009  1.3767
 1438SOL     OW 4369   2.053   1.730   1.953 -0.1564 -0.5817 -0.3709
 1438SOL    HW1 4370   2.069   1.773   2.037  1.8039  0.1524 -1.0595
 1438SOL    HW2 4371   2.140   1.708   1.920 -0.9841 -2.8125 -1.2472
 1439SOL     OW 4372   0.425   0.320   2.467 -0.1419 -0.6084  0.3122
 1439SOL    HW1 4373   0.477   0.377   2.523 -2.5146  1.2952  0.7390
 1439SOL    HW2 4374   0.468   0.325   2.382  1.7899 -1.1652  1.2043
 1440SOL     OW 4375   4.444   0.044   3.925  0.2792 -0.1757 -0.1279
 1440SOL    HW1 4376   4.455   0.075   3.835 -2.8758  1.6954 -0.0241
 1440SOL    HW2 4377   4.475  -0.046   3.923  2.7930  0.5871 -2.3787
 1441SOL     OW 4378   3.726   1.575   3.306  0.5568  0.0088  0.3428
 1441SOL    HW1 4379   3.703   1.492   3.347  0.8305  0.6929  1.9513
 1441SOL    HW2 4380   3.648   1.599   3.255 -0.4768 -0.0800  1.8155
 1442SOL     OW 4381   2.285   3.754   4.003  0.0834  0.1244 -0.1643
 1442SOL    HW1 4382   2.233   3.674   4.014  1.1830 -0.7246 -0.8682
 1442SOL    HW2 4383   2.222   3.825   4.011 -0.7506 -0.7511  1.6959
 1443SOL     OW 4384   2.937   3.170   3.785  0.8106  0.0522 -0.4281
 1443SOL    HW1 4385   3.002   3.124   3.839  0.7417 -0.2075 -0.5644
 1443SOL    HW2 4386   2.967   3.261   3.784  0.6455  0.1238  0.2960
 1444SOL     OW 4387   4.482   1.879   4.740 -0.1374 -0.1921 -0.5746
 1444SOL    HW1 4388   4.412   1.855   4.802 -0.9049  0.3745 -1.1994
 1444SOL    HW2 4389   4.450   1.959   4.699  0.4341 -0.4818 -1.6004
 1445SOL     OW 4390   2.796   3.821   4.539 -0.3992 -0.4999 -0.1515
 1445SOL    HW1 4391   2.722   3.803   4.481 -0.2865  0.1634 -0.5151
 1445SOL    HW2 4392   2.868   3.769   4.502 -0.4314 -0.3893 -0.3730
 1446SOL     OW 4393   2.915   3.197   1.115 -0.2518 -0.0778  0.0635
 1446SOL    HW1 4394   3.009   3.216   1.113  0.2331 -2.0304  1.0977
 1446SOL    HW2 4395   2.881   3.238   1.036  1.8225 -0.8652 -1.3429
 1447SOL     OW 4396   2.758   4.383   1.026  0.9587 -0.2044 -0.5766
 1447SOL    HW1 4397   2.765   4.288   1.041  1.9316 -0.0047  0.3650
 1447SOL    HW2 4398   2.801   4.396   0.941  0.9212 -0.5991 -0.6593
 1448SOL     OW 4399   2.605   1.767   2.491  0.0982  1.1059  0.0309
 1448SOL    HW1 4400   2.516   1.752   2.459 -0.5552  2.4310  1.1554
 1448SOL    HW2 4401   2.599   1.847   2.543  2.0184  1.3781 -0.1149
 1449SOL     OW 4402   3.756   3.961   1.037 -0.2536 -0.4035 -0.2661
 1449SOL    HW1 4403   3.763   3.866   1.043 -0.5713 -0.4234 -0.2186
 1449SOL    HW2 4404   3.771   3.992   1.127 -0.3111 -0.4192 -0.2510
 1450SOL     OW 4405   2.705   4.914   2.468 -0.3624 -0.4748  0.6466
 1450SOL    HW1 4406   2.682   4.830   2.508 -1.8542 -0.9117 -0.9709
 1450SOL    HW2 4407   2.621   4.960   2.459  0.2913  0.7405  0.5063
 1451SOL     OW 4408   1.054   0.477   3.701 -0.4834 -0.1999 -0.7344
 1451SOL    HW1 4409   1.126   0.464   3.639 -0.2501 -0.5037 -0.4036
 1451SOL    HW2 4410   1.047   0.394   3.748 -0.8562 -0.0740 -0.5627
 1452SOL     OW 4411   3.307   2.008   0.031  0.2713  0.1435  0.4968
 1452SOL    HW1 4412   3.307   2.007  -0.065  2.1479  0.0252  0.4549
 1452SOL    HW2 4413   3.333   2.097   0.054 -1.4166  0.5508  0.9510
 1453SOL     OW 4414   3.564   2.231   4.810 -0.0023  0.5606 -0.6040
 1453SOL    HW1 4415   3.503   2.249   4.738 -0.8771 -3.7993 -1.2794
 1453SOL    HW2 4416   3.649   2.221   4.767 -0.2150 -0.3731 -0.8389
 1454SOL     OW 4417   0.852   4.897   2.489  0.1113  0.2922 -0.0972
 1454SOL    HW1 4418   0.843   4.815   2.440 -1.1851  0.7962 -0.7426
 1454SOL    HW2 4419   0.935   4.933   2.461  1.2402 -1.3121  1.0103
 1455SOL     OW 4420   0.065   1.876   0.892 -0.2359 -0.2082  0.0121
 1455SOL    HW1 4421   0.020   1.938   0.833 -2.1409 -0.6207  0.9558
 1455SOL    HW2 4422   0.083   1.800   0.836 -1.6990 -0.4541 -0.1764
 1456SOL     OW 4423   4.503   4.916   4.349  0.0143 -0.6484  0.5281
 1456SOL    HW1 4424   4.508   4.842   4.289  0.7256  0.5699 -0.9996
 1456SOL    HW2 4425   4.423   4.962   4.324 -0.7633 -1.2121  1.8893
 1457SOL     OW 4426   2.746   1.417   1.947 -0.4690  0.2774  0.1077
 1457SOL    HW1 4427   2.828   1.454   1.915  0.0644 -0.9097  0.0765
 1457SOL    HW2 4428   2.728   1.466   2.027  0.4427  0.3246  0.2944
 1458SOL     OW 4429   2.772   3.793   1.262  0.0606  0.0212 -0.0730
 1458SOL    HW1 4430   2.851   3.760   1.304 -0.1194 -1.3455 -0.7707
 1458SOL    HW2 4431   2.752   3.729   1.194 -1.8106  0.1798  0.2739
 1459SOL     OW 4432   4.205   0.690   3.338  0.1930 -0.3517  0.0819
 1459SOL    HW1 4433   4.223   0.782   3.354 -0.0967 -0.4413  0.9854
 1459SOL    HW2 4434   4.179   0.655   3.423  1.8325 -1.6443  0.1112
 1460SOL     OW 4435   0.871   0.379   1.865 -0.6973  0.4705 -0.0718
 1460SOL    HW1 4436   0.896   0.289   1.883 -0.3835  0.4763 -0.4782
 1460SOL    HW2 4437   0.789   0.372   1.816  1.2758  0.2174 -3.6560
 1461SOL     OW 4438   1.153   3.745   1.615  0.1626 -0.0124  0.2995
 1461SOL    HW1 4439   1.071   3.762   1.569  0.2242  1.9605  0.8447
 1461SOL    HW2 4440   1.201   3.828   1.612 -0.2582  0.6586  4.6607
 1462SOL     OW 4441   2.827   1.880   3.218 -0.2107 -0.3205 -0.2833
 1462SOL    HW1 4442   2.758   1.818   3.244 -0.1281 -0.2008  0.2250
 1462SOL    HW2 4443   2.789   1.927   3.143 -0.1132 -1.2697 -0.9458
 1463SOL     OW 4444   1.423   0.395   4.946  0.3532 -0.3648 -0.6394
 1463SOL    HW1 4445   1.364   0.416   5.018 -0.5151 -0.8967 -1.1774
 1463SOL    HW2 4446   1.496   0.457   4.955 -0.4808  0.5707 -0.2083
 1464SOL     OW 4447   0.411   4.486   0.759 -0.4533  0.0509  0.0628
 1464SOL    HW1 4448   0.433   4.393   0.758 -1.9986 -0.3368  0.5625
 1464SOL    HW2 4449   0.360   4.499   0.838 -1.7496  0.9602 -0.8650
 1465SOL     OW 4450   3.937   2.098   0.678  0.2128 -0.2704  0.0911
 1465SOL    HW1 4451   3.959   2.029   0.741  1.2524 -0.2985 -0.2871
 1465SOL    HW2 4452   4.008   2.162   0.687  1.9114 -1.5494 -2.9372
 1466SOL     OW 4453   3.974   1.885   3.907 -0.2787  0.2018  0.2214
 1466SOL    HW1 4454   3.972   1.895   3.811 -0.0587  0.3931  0.2374
 1466SOL    HW2 4455   3.995   1.792   3.920 -1.1994 -0.0417  0.0831
 1467SOL     OW 4456   1.359   2.004   2.714  0.5142 -0.1780  0.7175
 1467SOL    HW1 4457   1.271   1.983   2.682  0.4746 -0.7760  1.2054
 1467SOL    HW2 4458   1.345   2.059   2.791  0.5946  0.5132  0.2513
 1468SOL     OW 4459   2.080   2.844   1.100  0.0515  0.2290 -0.5773
 1468SOL    HW1 4460   2.165   2.804   1.083  0.1549  1.2271 -2.7437
 1468SOL    HW2 4461   2.021   2.770   1.115  1.3287 -0.4712  1.4739
 1469SOL     OW 4462   3.962   4.142   0.923 -0.3379 -0.6611 -0.1135
 1469SOL    HW1 4463   3.993   4.094   0.846  1.6873 -0.9169  0.7885
 1469SOL    HW2 4464   3.884   4.095   0.951 -1.3680 -0.3282 -2.1971
 1470SOL     OW 4465   1.778   1.778   1.889 -0.2641 -0.1609  0.4480
 1470SOL    HW1 4466   1.770   1.846   1.956 -1.4127 -0.5457  0.7162
 1470SOL    HW2 4467   1.866   1.742   1.902  0.0359  0.6882  0.8569
 1471SOL     OW 4468   1.624   4.717   0.594  0.7208  0.2181  0.2705
 1471SOL    HW1 4469   1.648   4.770   0.670  0.4063 -0.0559  0.5654
 1471SOL    HW2 4470   1.691   4.738   0.528 -0.1960  2.0884 -0.1460
 1472SOL     OW 4471   0.581   3.431   0.068  0.3426  1.0155  0.1222
 1472SOL    HW1 4472   0.515   3.415   0.001 -1.9072  1.5875  2.0804
 1472SOL    HW2 4473   0.582   3.351   0.121  1.7165  0.7737 -0.2155
 1473SOL     OW 4474   0.806   0.493   2.126 -0.8043 -0.3345  0.3902
 1473SOL    HW1 4475   0.890   0.466   2.164 -0.0855  1.6691  0.3694
 1473SOL    HW2 4476   0.820   0.487   2.031  0.0306  1.7871  0.3275
 1474SOL     OW 4477   3.113   0.231   3.036 -0.4290 -0.0703  0.5266
 1474SOL    HW1 4478   3.076   0.145   3.014 -2.8366  0.9573  0.2170
 1474SOL    HW2 4479   3.046   0.293   3.007  0.1480  1.7926  2.9399
 1475SOL     OW 4480   1.014   4.725   0.936  0.1034 -0.6045  0.0237
 1475SOL    HW1 4481   1.093   4.778   0.929 -0.1595 -0.1401  0.4507
 1475SOL    HW2 4482   1.007   4.680   0.852 -0.2608  0.8913 -0.7908
 1476SOL     OW 4483   2.202   2.008   0.821  0.0051 -0.4679 -0.0194
 1476SOL    HW1 4484   2.216   1.925   0.866 -0.0738 -0.9207 -0.8019
 1476SOL    HW2 4485   2.241   2.074   0.878 -0.1876 -1.0105  0.7430
 1477SOL     OW 4486   1.919   1.030   3.162 -0.0583  0.3760 -0.1637
 1477SOL    HW1 4487   1.951   1.092   3.096 -0.1920  0.3968 -0.2088
 1477SOL    HW2 4488   1.844   1.073   3.202  0.5169  0.7175  0.5830
 1478SOL     OW 4489   0.721   4.662   2.716 -0.3273 -0.2310  0.0327
 1478SOL    HW1 4490   0.715   4.740   2.662  2.0438 -0.8268 -1.2148
 1478SOL    HW2 4491   0.773   4.600   2.665 -0.0903 -1.7611  1.9769
 1479SOL     OW 4492   3.305   3.153   0.347 -0.5532  0.0266  0.1966
 1479SOL    HW1 4493   3.399   3.134   0.342 -0.4696  0.4925 -0.0268
 1479SOL    HW2 4494   3.268   3.076   0.391  0.4371  1.4776  3.9722
 1480SOL     OW 4495   4.217   2.835   0.527  0.1975  0.9503 -0.1125
 1480SOL    HW1 4496   4.208   2.791   0.443  3.0501  1.6948 -0.9421
 1480SOL    HW2 4497   4.207   2.928   0.507  1.3922  1.1760  0.2352
 1481SOL     OW 4498   3.515   0.288   0.456 -0.0846 -0.2818 -0.2361
 1481SOL    HW1 4499   3.545   0.374   0.484 -4.7732  0.9273  2.1548
 1481SOL    HW2 4500   3.579   0.227   0.491  1.5154  2.0684  1.1814
 1482SOL     OW 4501   4.008   0.884   0.746 -0.3752  0.1233  0.3652
 1482SOL    HW1 4502   3.979   0.971   0.719  1.5377  0.4144 -0.8841
 1482SOL    HW2 4503   4.089   0.898   0.794  1.0556 -1.0445 -1.5531
 1483SOL     OW 4504   4.491   4.400   4.939 -0.2232 -0.2126  0.6705
 1483SOL    HW1 4505   4.586   4.398   4.929 -0.1794  2.0369  0.0783
 1483SOL    HW2 4506   4.465   4.308   4.945  1.5529 -1.1272 -3.1542
 1484SOL     OW 4507   0.102   1.034   3.988  0.6050 -0.0477 -0.5227
 1484SOL    HW1 4508   0.051   1.090   4.046 -1.3311 -0.1898 -1.9725
 1484SOL    HW2 4509   0.166   1.093   3.948  1.0262  0.3308  0.6739
 1485SOL     OW 4510   0.111   2.702   0.262  0.6263  0.5112 -0.3958
 1485SOL    HW1 4511   0.063   2.778   0.296 -0.7850  0.4890 -2.1545
 1485SOL    HW2 4512   0.115   2.717   0.168 -2.5432 -2.9690 -1.3645
 1486SOL     OW 4513   1.820   3.733   4.321  0.5499 -0.1090 -0.2132
 1486SOL    HW1 4514   1.884   3.723   4.392 -0.3314  2.0989  0.9854
 1486SOL    HW2 4515   1.762   3.657   4.331 -0.8525  1.1967  2.9568
 1487SOL     OW 4516   1.717   3.493   2.707 -0.2762 -0.3759 -0.3968
 1487SOL    HW1 4517   1.697   3.509   2.615  1.8961 -0.0065 -0.8574
 1487SOL    HW2 4518   1.748   3.403   2.711  0.1423 -0.2273 -0.1395
 1488SOL     OW 4519   0.597   1.026   3.008 -0.0911 -0.2121 -0.0283
 1488SOL    HW1 4520   0.655   1.041   3.083  1.8755 -1.3113 -1.2330
 1488SOL    HW2 4521   0.602   1.107   2.958 -2.3542  0.9931  1.5214
 1489SOL     OW 4522   1.233   1.258   0.407 -0.0386 -0.7324  0.7766
 1489SOL    HW1 4523   1.173   1.327   0.433  1.3166  0.9598 -0.3185
 1489SOL    HW2 4524   1.250   1.209   0.487 -1.2790  0.0062  1.5208
 1490SOL     OW 4525   2.154   1.166   1.374 -0.5393  0.0621 -0.6404
 1490SOL    HW1 4526   2.185   1.084   1.335  0.4855  0.5311 -0.8595
 1490SOL    HW2 4527   2.114   1.213   1.301 -0.3495  0.1169 -0.7113
 1491SOL     OW 4528   0.371   4.563   1.824  0.4505  0.0618 -0.6100
 1491SOL    HW1 4529   0.278   4.548   1.808  0.5722  0.8909 -2.2671
 1491SOL    HW2 4530   0.405   4.476   1.847 -0.8764 -0.0784  1.0129
 1492SOL     OW 4531   2.407   2.062   2.116 -0.4152 -0.1078  0.0081
 1492SOL    HW1 4532   2.365   2.001   2.176  0.1728  0.0341  0.5725
 1492SOL    HW2 4533   2.481   2.013   2.080 -0.5323 -0.0603 -0.2991
 1493SOL     OW 4534   0.707   2.184   0.546 -0.4936 -0.3491  0.2378
 1493SOL    HW1 4535   0.683   2.105   0.497  2.6458 -1.1473 -0.2400
 1493SOL    HW2 4536   0.646   2.187   0.620 -0.5821 -3.3804  0.3894
 1494SOL     OW 4537   4.730   4.383   4.451  0.5058  0.2382  0.2770
 1494SOL    HW1 4538   4.725   4.299   4.496 -0.0896  0.9115  1.4940
 1494SOL    HW2 4539   4.681   4.443   4.506  0.2825  1.2309 -0.9603
 1495SOL     OW 4540   1.436   2.976   3.753  0.1196  0.6364 -0.3441
 1495SOL    HW1 4541   1.468   2.928   3.676 -1.3978 -0.4379 -0.3579
 1495SOL    HW2 4542   1.491   2.946   3.825 -0.6842 -1.0945 -0.3864
 1496SOL     OW 4543   3.632   3.472   4.641  0.5097  0.6178 -0.3338
 1496SOL    HW1 4544   3.644   3.384   4.603 -0.5797 -0.2082  1.1361
 1496SOL    HW2 4545   3.688   3.473   4.718 -1.2750  0.2594  1.0500
 1497SOL     OW 4546   2.642   3.300   0.663 -0.1909  0.1603 -0.3582
 1497SOL    HW1 4547   2.569   3.341   0.618  0.1847 -2.0769 -3.2543
 1497SOL    HW2 4548   2.711   3.292   0.597  1.0002 -1.9125  1.0069
 1498SOL     OW 4549   2.624   1.893   0.310  0.0258  0.4708  0.0953
 1498SOL    HW1 4550   2.604   1.982   0.338  0.4766  0.2061  1.3572
 1498SOL    HW2 4551   2.543   1.861   0.271 -0.3832  1.1738  0.3535
 1499SOL     OW 4552   4.497   4.501   0.300 -0.4525  0.4675  0.0371
 1499SOL    HW1 4553   4.570   4.452   0.339  0.3143  2.7333  1.6585
 1499SOL    HW2 4554   4.495   4.472   0.209  2.5793  0.3791 -0.1045
 1500SOL     OW 4555   0.726   1.890   0.484 -0.6972  0.3279 -0.4835
 1500SOL    HW1 4556   0.803   1.858   0.531 -0.1836  0.9192 -0.9174
 1500SOL    HW2 4557   0.654   1.837   0.518  0.0413 -0.8743 -0.7410
 1501SOL     OW 4558   1.594   3.030   2.339 -0.3665 -0.1176  0.0877
 1501SOL    HW1 4559   1.581   2.950   2.287 -0.0313 -0.3066  0.2909
 1501SOL    HW2 4560   1.637   2.999   2.419 -0.3960  0.2446  0.2438
 1502SOL     OW 4561   1.116   1.119   0.984 -0.3307 -0.3143 -0.1696
 1502SOL    HW1 4562   1.198   1.146   0.942 -1.0576  1.5685 -0.5010
 1502SOL    HW2 4563   1.050   1.130   0.916 -1.1060 -0.1601  0.5937
 1503SOL     OW 4564   3.996   3.697   2.670 -0.3135  0.4862  0.5467
 1503SOL    HW1 4565   3.931   3.629   2.650  2.6744 -1.5304 -3.8235
 1503SOL    HW2 4566   4.020   3.680   2.761 -0.9533 -3.3603  0.2012
 1504SOL     OW 4567   3.301   4.266   2.106  0.2747 -0.0181  0.1372
 1504SOL    HW1 4568   3.265   4.229   2.025 -1.9350  0.0704  1.0144
 1504SOL    HW2 4569   3.299   4.193   2.168 -0.2048  0.4837  0.7246
 1505SOL     OW 4570   0.073   2.107   3.996  0.2862 -0.0698 -0.2087
 1505SOL    HW1 4571   0.048   2.151   3.915  1.4029  2.7579  0.8640
 1505SOL    HW2 4572   0.164   2.133   4.010  1.6204 -4.0643 -0.2317
 1506SOL     OW 4573   3.494   2.772   4.379  0.0598  0.1202  0.5845
 1506SOL    HW1 4574   3.485   2.817   4.295  1.5481 -1.5447 -0.5357
 1506SOL    HW2 4575   3.469   2.681   4.361  1.0841 -0.4314  1.7457
 1507SOL     OW 4576   2.722   3.663   2.276  0.1123 -0.2160  0.3706
 1507SOL    HW1 4577   2.666   3.630   2.346 -1.3164 -1.0242 -1.0956
 1507SOL    HW2 4578   2.672   3.734   2.236  0.4805 -0.3874 -0.4209
 1508SOL     OW 4579   0.567   3.796   2.587  0.3183  0.0741 -0.8443
 1508SOL    HW1 4580   0.611   3.881   2.597  0.4861 -0.0775 -0.2073
 1508SOL    HW2 4581   0.474   3.817   2.586  0.3161  0.1988  0.2859
 1509SOL     OW 4582   1.770   3.116   3.241 -0.1565  0.3348 -0.1098
 1509SOL    HW1 4583   1.798   3.201   3.275  0.6132 -0.0506  0.2624
 1509SOL    HW2 4584   1.849   3.079   3.201 -0.1440 -0.7301  0.8523
 1510SOL     OW 4585   3.373   3.467   3.461 -0.4812  0.2365  0.1945
 1510SOL    HW1 4586   3.384   3.373   3.475 -0.0246 -0.2006 -2.5614
 1510SOL    HW2 4587   3.447   3.492   3.406 -0.1689  2.4242  1.5061
 1511SOL     OW 4588   0.787   0.270   0.629  0.1823 -0.0003  0.2065
 1511SOL    HW1 4589   0.776   0.180   0.658 -0.1032 -0.0732 -0.1171
 1511SOL    HW2 4590   0.858   0.304   0.683  0.5803 -0.5460  0.0406
 1512SOL     OW 4591   4.498   3.704   4.306 -0.1031 -0.6485  0.2724
 1512SOL    HW1 4592   4.445   3.671   4.234  0.0049 -1.4911  0.5715
 1512SOL    HW2 4593   4.588   3.683   4.282  0.2402  1.6548 -0.7031
 1513SOL     OW 4594   3.558   1.536   4.778 -0.5398  0.2669  0.1128
 1513SOL    HW1 4595   3.589   1.500   4.695 -1.7709 -0.4014 -0.0872
 1513SOL    HW2 4596   3.636   1.542   4.832 -0.0109 -1.1508 -0.4349
 1514SOL     OW 4597   3.501   3.920   4.412 -0.0897 -0.4636  0.1017
 1514SOL    HW1 4598   3.489   3.826   4.428  0.7428 -0.3963  1.2791
 1514SOL    HW2 4599   3.596   3.932   4.412 -0.1938  0.5107  0.9184
 1515SOL     OW 4600   2.183   2.648   3.373  0.0083  0.1260 -0.0175
 1515SOL    HW1 4601   2.121   2.589   3.418  0.3654  0.1481  0.5077
 1515SOL    HW2 4602   2.211   2.598   3.296  1.3252 -0.9607  1.1140
 1516SOL     OW 4603   3.409   1.530   2.031 -0.2932 -0.7417  0.2671
 1516SOL    HW1 4604   3.478   1.504   1.970 -0.0787  1.1237 -0.3357
 1516SOL    HW2 4605   3.368   1.606   1.991 -1.3717 -0.5851  1.5873
 1517SOL     OW 4606   1.367   2.512   0.113  0.1321 -0.4135  0.1675
 1517SOL    HW1 4607   1.383   2.418   0.102 -0.4686 -0.4746 -0.2002
 1517SOL    HW2 4608   1.425   2.554   0.049  0.1496 -0.5446  0.0968
 1518SOL     OW 4609   3.021   1.200   1.406 -0.3737 -0.2520 -0.0280
 1518SOL    HW1 4610   3.042   1.289   1.376  1.7097 -0.8878 -0.6287
 1518SOL    HW2 4611   2.947   1.173   1.351  0.0517  0.5043 -1.0031
 1519SOL     OW 4612   1.559   0.893   3.699  0.2587 -0.0859  0.3038
 1519SOL    HW1 4613   1.530   0.958   3.762 -1.0142 -0.1858 -0.1453
 1519SOL    HW2 4614   1.586   0.818   3.752  0.9110  0.4869  0.7877
 1520SOL     OW 4615   2.102   2.175   1.673  0.5553  0.5328 -0.3283
 1520SOL    HW1 4616   2.049   2.243   1.631  0.5858 -0.8435 -2.7747
 1520SOL    HW2 4617   2.038   2.122   1.722  0.1044  0.6346 -0.7964
 1521SOL     OW 4618   0.810   0.579   3.084  0.8778 -0.2760  0.2159
 1521SOL    HW1 4619   0.876   0.639   3.049  2.2601 -2.0275 -0.2891
 1521SOL    HW2 4620   0.750   0.636   3.133  2.5458  1.4248  0.4042
 1522SOL     OW 4621   1.536   0.036   3.903 -0.3601 -0.5860  0.1355
 1522SOL    HW1 4622   1.558   0.040   3.996 -0.8381  2.4976  0.2272
 1522SOL    HW2 4623   1.597  -0.028   3.866  0.7356 -0.8934  2.3328
 1523SOL     OW 4624   0.745   3.529   0.542  0.5628  0.7403  0.0210
 1523SOL    HW1 4625   0.836   3.498   0.536  0.9759  2.1405 -3.2861
 1523SOL    HW2 4626   0.752   3.612   0.590  0.5005 -0.5783  2.4441
 1524SOL     OW 4627   2.019   2.245   3.153 -0.0367  0.0394  0.5200
 1524SOL    HW1 4628   2.052   2.335   3.157 -0.6063  0.3548 -1.1096
 1524SOL    HW2 4629   2.093   2.194   3.120  0.5493 -0.2765  2.2080
 1525SOL     OW 4630   0.143   3.122   0.831 -0.1966  0.7741 -0.3227
 1525SOL    HW1 4631   0.206   3.131   0.903 -0.3612  1.4908 -0.2622
 1525SOL    HW2 4632   0.072   3.182   0.853 -0.9276 -0.0502 -0.3766
 1526SOL     OW 4633   1.951   2.095   1.436 -0.4064  0.0425 -0.4523
 1526SOL    HW1 4634   1.856   2.094   1.428 -0.3830  1.4055 -1.3635
 1526SOL    HW2 4635   1.970   2.182   1.471  0.4905 -0.3010 -0.0744
 1527SOL     OW 4636   0.478   1.848   2.369  0.6734  0.4366 -0.0559
 1527SOL    HW1 4637   0.388   1.875   2.388  0.8080  1.1028 -0.3459
 1527SOL    HW2 4638   0.475   1.753   2.369 -0.1183  0.4575 -0.4675
 1528SOL     OW 4639   2.915   2.783   1.952  0.1190  0.3876  0.4530
 1528SOL    HW1 4640   2.864   2.851   1.908 -0.9819 -1.4273 -1.2202
 1528SOL    HW2 4641   3.005   2.800   1.924 -0.3381  0.2826 -1.1873
 1529SOL     OW 4642   4.827   0.104   4.369  0.3863 -0.5372 -0.1078
 1529SOL    HW1 4643   4.765   0.067   4.306 -1.6508  2.6513 -0.1703
 1529SOL    HW2 4644   4.778   0.170   4.416  3.5748  1.8265  0.2539
 1530SOL     OW 4645   0.832   3.859   2.227  0.3966  0.1826 -0.2727
 1530SOL    HW1 4646   0.790   3.840   2.143 -1.2856 -1.8925  0.9386
 1530SOL    HW2 4647   0.907   3.800   2.230 -0.0652 -0.4101  0.0116
 1531SOL     OW 4648   1.474   3.412   4.590  0.0630  0.2340  0.3456
 1531SOL    HW1 4649   1.545   3.360   4.627 -0.8648 -1.2215  0.2021
 1531SOL    HW2 4650   1.420   3.435   4.665  0.5606  1.1606  0.4291
 1532SOL     OW 4651   2.864   1.260   3.471  0.4673 -0.3106  0.0884
 1532SOL    HW1 4652   2.867   1.292   3.561 -1.9401 -2.7629  1.1859
 1532SOL    HW2 4653   2.828   1.172   3.478  2.2819 -1.4820 -3.1230
 1533SOL     OW 4654   1.557   2.654   3.183 -0.1343 -0.2731 -0.0229
 1533SOL    HW1 4655   1.497   2.698   3.243 -0.9876  1.4853 -2.0401
 1533SOL    HW2 4656   1.569   2.716   3.111  1.3943 -1.9837 -1.3440
 1534SOL     OW 4657   3.399   2.418   3.866 -0.2516  0.5212  0.3198
 1534SOL    HW1 4658   3.407   2.490   3.928 -1.0548 -0.1490  1.2261
 1534SOL    HW2 4659   3.306   2.416   3.844 -0.5276 -1.1341  1.4366
 1535SOL     OW 4660   0.075   2.920   0.694 -0.1696  0.3424  0.0663
 1535SOL    HW1 4661   0.098   3.002   0.739 -2.2601  0.8593  0.3302
 1535SOL    HW2 4662   0.144   2.859   0.719  0.5898  1.5810  1.1708
 1536SOL     OW 4663   2.042   3.512   3.741  0.4261  0.2424  0.3985
 1536SOL    HW1 4664   2.101   3.443   3.713 -1.6777 -1.4134 -0.1937
 1536SOL    HW2 4665   2.003   3.544   3.660  0.2536  1.0987  0.8059
 1537SOL     OW 4666   0.626   0.027   0.830  0.0286 -0.0467  0.8623
 1537SOL    HW1 4667   0.707   0.051   0.876  0.3381 -1.2431  0.9778
 1537SOL    HW2 4668   0.580  -0.030   0.892  0.5059 -1.7781 -0.3325
 1538SOL     OW 4669   2.693  -0.018   4.881 -0.3637 -0.1987  0.1361
 1538SOL    HW1 4670   2.721   0.006   4.793 -2.0393  1.9464  0.0867
 1538SOL    HW2 4671   2.734   0.047   4.938 -1.9418  0.5728  0.4735
 1539SOL     OW 4672   1.101   2.054   3.517  0.5811  0.1372  0.8857
 1539SOL    HW1 4673   1.132   1.994   3.449 -0.9812 -0.8797  1.0274
 1539SOL    HW2 4674   1.013   2.079   3.489  1.0046  2.0121  1.0897
 1540SOL     OW 4675   0.317   4.043   4.827 -0.5794  0.2324 -0.0824
 1540SOL    HW1 4676   0.276   4.003   4.750 -1.5964  0.7967  0.1541
 1540SOL    HW2 4677   0.404   4.003   4.831 -0.8726 -0.5256 -0.9569
 1541SOL     OW 4678   2.290   3.919   4.231 -0.4373 -0.5008  0.3001
 1541SOL    HW1 4679   2.307   3.831   4.265  0.7109 -0.7792 -0.8713
 1541SOL    HW2 4680   2.352   3.928   4.158 -2.9196 -0.0848 -1.8973
 1542SOL     OW 4681   1.209   3.544   3.127 -0.0630  0.4462  0.2667
 1542SOL    HW1 4682   1.144   3.612   3.111  0.2296  0.2407 -2.1358
 1542SOL    HW2 4683   1.158   3.467   3.153 -0.6924  0.6504 -0.3371
 1543SOL     OW 4684   3.582   4.653   4.948 -0.2503 -0.2723 -0.2045
 1543SOL    HW1 4685   3.530   4.723   4.910  0.6491 -0.2328 -1.4309
 1543SOL    HW2 4686   3.591   4.676   5.040 -0.6179  0.8050 -0.4327
 1544SOL     OW 4687   2.504   2.027   2.551 -0.4628  0.0700  0.3659
 1544SOL    HW1 4688   2.551   2.097   2.506  0.6303 -0.4122  0.7166
 1544SOL    HW2 4689   2.412   2.044   2.532 -0.1443  0.9234 -0.5219
 1545SOL     OW 4690   0.197   1.943   4.176 -0.0119 -1.0326  0.4026
 1545SOL    HW1 4691   0.144   1.877   4.221 -1.2455 -1.1001 -1.0584
 1545SOL    HW2 4692   0.147   1.963   4.097  0.3219  1.6665  0.7921
 1546SOL     OW 4693   1.863   3.721   3.279  0.0490 -0.3395 -0.0911
 1546SOL    HW1 4694   1.869   3.731   3.184 -0.8029 -2.1933 -0.3837
 1546SOL    HW2 4695   1.785   3.771   3.304 -0.2607 -0.6097 -0.5080
 1547SOL     OW 4696   2.492   2.223   3.717 -0.0635 -0.1073  0.1655
 1547SOL    HW1 4697   2.573   2.208   3.765  1.5330 -1.8391 -2.7630
 1547SOL    HW2 4698   2.513   2.291   3.654 -1.5787  0.9094  0.6960
 1548SOL     OW 4699   4.085   1.207   2.178  0.3831  0.0047 -0.2639
 1548SOL    HW1 4700   3.990   1.205   2.169  0.4224  0.9628 -1.1382
 1548SOL    HW2 4701   4.111   1.115   2.181 -0.5115 -0.2756 -0.7496
 1549SOL     OW 4702   0.580   2.800   4.289 -0.1232  0.5407 -0.3640
 1549SOL    HW1 4703   0.514   2.862   4.319 -0.3365  0.3005 -0.3332
 1549SOL    HW2 4704   0.653   2.810   4.351 -0.4551  0.2395  0.0814
 1550SOL     OW 4705   0.757   0.745   0.555 -0.0145 -0.1422 -0.0443
 1550SOL    HW1 4706   0.751   0.788   0.640  2.8635 -1.2516  0.8497
 1550SOL    HW2 4707   0.704   0.666   0.564  0.5216 -0.4154  0.8655
 1551SOL     OW 4708   2.914   2.345   2.135  0.0931  0.2148 -0.1450
 1551SOL    HW1 4709   2.861   2.360   2.213 -1.8314  0.0720 -1.3580
 1551SOL    HW2 4710   2.866   2.278   2.086  0.9930  0.6482 -1.6878
 1552SOL     OW 4711   0.092   3.844   3.042 -0.7807 -0.1947 -0.3401
 1552SOL    HW1 4712   0.123   3.933   3.058 -0.3047 -0.5709  0.9182
 1552SOL    HW2 4713  -0.003   3.853   3.033 -0.7252  0.4434 -0.2983
 1553SOL     OW 4714   0.723   4.541   3.185 -0.2895 -0.8876 -0.4701
 1553SOL    HW1 4715   0.750   4.626   3.151  1.1928 -0.4935  1.4649
 1553SOL    HW2 4716   0.682   4.561   3.269  0.7713 -2.0861  0.3865
 1554SOL     OW 4717   0.660   2.815   2.916  0.3003 -0.4498  0.2127
 1554SOL    HW1 4718   0.642   2.892   2.861  0.3025 -0.9804 -0.5493
 1554SOL    HW2 4719   0.711   2.850   2.989  1.7573  0.0372 -0.9794
 1555SOL     OW 4720   0.721   0.615   3.620 -0.2457 -0.0299 -0.2458
 1555SOL    HW1 4721   0.817   0.612   3.627 -0.1632  3.1278  1.8002
 1555SOL    HW2 4722   0.705   0.655   3.534  0.2351 -0.5204 -0.5733
 1556SOL     OW 4723   0.959   1.005   2.231 -0.2561  0.0630  1.0753
 1556SOL    HW1 4724   0.961   0.934   2.166 -0.5285  0.8400  0.2069
 1556SOL    HW2 4725   0.893   1.065   2.198 -2.6458 -0.9795  3.6365
 1557SOL     OW 4726   2.111   3.995   3.221  0.5504 -0.2961  0.3958
 1557SOL    HW1 4727   2.115   4.067   3.283  2.3967  0.2732 -0.3115
 1557SOL    HW2 4728   2.143   3.919   3.269  4.1080  0.5794 -0.3186
 1558SOL     OW 4729   4.747   4.895   1.714 -0.0151 -0.3000  0.1066
 1558SOL    HW1 4730   4.821   4.919   1.770 -1.0372  0.0248  1.3579
 1558SOL    HW2 4731   4.679   4.866   1.775 -0.4121 -2.0560 -1.0923
 1559SOL     OW 4732   4.818   3.345   3.972  0.2245 -0.1590 -0.7858
 1559SOL    HW1 4733   4.752   3.281   3.945 -1.2745  1.0179 -0.1262
 1559SOL    HW2 4734   4.801   3.421   3.916 -0.9122  1.1859  1.2462
 1560SOL     OW 4735   2.141   4.671   2.449 -0.4239  0.4585  0.4641
 1560SOL    HW1 4736   2.227   4.667   2.491 -0.4462 -2.3371  0.3908
 1560SOL    HW2 4737   2.143   4.604   2.381 -2.5049  0.6561  0.1257
 1561SOL     OW 4738   2.168   3.643   2.153 -0.5758  0.1248  0.8672
 1561SOL    HW1 4739   2.073   3.654   2.153 -1.1270 -2.7817 -2.4694
 1561SOL    HW2 4740   2.200   3.719   2.105 -1.2801  0.7849  1.4226
 1562SOL     OW 4741   0.304   2.226   1.228 -0.2735 -0.4046  0.6149
 1562SOL    HW1 4742   0.367   2.282   1.274  0.1018 -1.2949  1.2257
 1562SOL    HW2 4743   0.352   2.194   1.151  0.0425 -1.0969  1.0897
 1563SOL     OW 4744   1.882   0.443   1.401 -0.0016  0.0588 -0.2536
 1563SOL    HW1 4745   1.851   0.515   1.457 -0.6279 -0.0152 -0.4858
 1563SOL    HW2 4746   1.886   0.482   1.314  1.1644  0.2299 -0.1372
 1564SOL     OW 4747   2.071   2.451   2.678 -0.5739  0.4785  0.3502
 1564SOL    HW1 4748   2.131   2.449   2.752 -0.8303  1.2409  0.5970
 1564SOL    HW2 4749   2.041   2.361   2.668  0.1551  0.2077  0.5993
 1565SOL     OW 4750   0.986   0.665   2.454 -0.1574 -0.3864 -0.0379
 1565SOL    HW1 4751   0.992   0.614   2.535  0.6982 -1.8679 -0.9854
 1565SOL    HW2 4752   1.037   0.744   2.472  2.8634 -2.1377 -0.1038
 1566SOL     OW 4753   2.063   0.185   1.744 -0.2205 -0.3082  0.1670
 1566SOL    HW1 4754   1.983   0.230   1.717  0.2663  0.2970 -0.2912
 1566SOL    HW2 4755   2.112   0.171   1.663  0.4299 -0.0878  0.5141
 1567SOL     OW 4756   0.815   1.970   4.319  0.0112  0.5573  0.2688
 1567SOL    HW1 4757   0.756   2.008   4.253  1.4387  0.6927 -0.9965
 1567SOL    HW2 4758   0.838   1.884   4.284  1.0648  0.7714  0.3865
 1568SOL     OW 4759   2.836   3.809   0.105  0.1219  0.2516  0.0863
 1568SOL    HW1 4760   2.920   3.810   0.058 -0.3075  0.1287 -0.6943
 1568SOL    HW2 4761   2.783   3.744   0.058 -0.4576  0.4240  0.4951
 1569SOL     OW 4762   3.631   4.342   1.002  0.6988  0.0420 -0.0679
 1569SOL    HW1 4763   3.635   4.318   1.095  1.9427  1.0798  0.1795
 1569SOL    HW2 4764   3.617   4.259   0.957  0.5475 -0.5460  1.0109
 1570SOL     OW 4765   4.389   0.664   2.037 -0.4036  0.1567  0.1166
 1570SOL    HW1 4766   4.438   0.731   1.989 -0.5095  0.2549  0.1453
 1570SOL    HW2 4767   4.399   0.688   2.129 -1.6155  0.9586  0.0683
 1571SOL     OW 4768   0.852   2.358   3.031 -0.0124 -0.8495  0.6590
 1571SOL    HW1 4769   0.803   2.427   2.987 -1.0269 -0.7982  1.8260
 1571SOL    HW2 4770   0.826   2.364   3.123  3.7358  0.5643  1.8146
 1572SOL     OW 4771   1.815   4.366   1.220 -0.0383 -0.0303  0.2376
 1572SOL    HW1 4772   1.740   4.309   1.240 -0.3266 -0.0027 -0.7088
 1572SOL    HW2 4773   1.886   4.307   1.199 -0.6915 -0.1021 -2.0491
 1573SOL     OW 4774   4.421   2.046   1.169 -0.0152 -0.6057  0.2337
 1573SOL    HW1 4775   4.494   2.078   1.117  0.1755 -0.2748  0.6981
 1573SOL    HW2 4776   4.365   2.000   1.107  1.1591 -1.8580  0.0691
 1574SOL     OW 4777   1.105   4.305   2.577 -0.0776 -0.1506 -0.2082
 1574SOL    HW1 4778   1.109   4.263   2.491 -1.2540 -0.2878 -0.2174
 1574SOL    HW2 4779   1.152   4.245   2.635  1.2082  0.2113 -0.8360
 1575SOL     OW 4780   2.991   2.811   4.186  0.3567 -0.0451 -0.1249
 1575SOL    HW1 4781   2.949   2.725   4.180 -0.0009  0.1524 -0.5398
 1575SOL    HW2 4782   2.924   2.873   4.155  1.6962  0.0463 -3.2703
 1576SOL     OW 4783   4.281   1.458   1.381 -0.4781 -0.6203 -0.0223
 1576SOL    HW1 4784   4.225   1.532   1.355  0.6375  0.2673 -0.0048
 1576SOL    HW2 4785   4.289   1.405   1.302  0.1299  0.2459 -0.5733
 1577SOL     OW 4786   1.382   0.665   0.802 -0.2358 -0.4251  0.3727
 1577SOL    HW1 4787   1.450   0.607   0.835  0.4465  1.4146  2.4661
 1577SOL    HW2 4788   1.313   0.661   0.868 -0.8868 -0.1101 -0.2785
 1578SOL     OW 4789   2.216   3.362   0.161 -0.2447 -0.2195  0.2426
 1578SOL    HW1 4790   2.308   3.380   0.144 -0.2380  0.5584  1.0412
 1578SOL    HW2 4791   2.208   3.267   0.152  0.6202 -0.2859  0.1073
 1579SOL     OW 4792   4.617   4.383   3.462 -0.4767  0.1009  0.0675
 1579SOL    HW1 4793   4.531   4.413   3.432 -0.6132  0.8302  1.1276
 1579SOL    HW2 4794   4.678   4.450   3.432 -0.5384  0.5397  0.8828
 1580SOL     OW 4795   4.007   2.486   2.579 -0.0007 -0.2214  0.1651
 1580SOL    HW1 4796   4.056   2.568   2.586  0.4054 -0.5516  1.4218
 1580SOL    HW2 4797   4.036   2.433   2.654 -2.2199 -0.4473  0.9642
 1581SOL     OW 4798   3.176   2.577   3.031  0.0788 -0.6109 -0.5995
 1581SOL    HW1 4799   3.180   2.560   3.126 -1.3692  1.2315 -0.1385
 1581SOL    HW2 4800   3.266   2.603   3.008 -0.1933  2.2669  1.0669
 1582SOL     OW 4801   3.017   1.389   3.210  0.0641  0.2834  0.1406
 1582SOL    HW1 4802   3.094   1.426   3.168  1.2812 -0.6714  1.4591
 1582SOL    HW2 4803   2.972   1.341   3.140  1.5550 -0.5034 -0.3086
 1583SOL     OW 4804   1.695   1.397   0.609 -0.3055 -0.0430 -0.1518
 1583SOL    HW1 4805   1.704   1.450   0.687  1.6309  0.0640 -0.3943
 1583SOL    HW2 4806   1.672   1.310   0.641 -0.7917  0.2970  0.4332
 1584SOL     OW 4807   4.605   1.087   0.352 -0.1176  0.1610 -0.8427
 1584SOL    HW1 4808   4.697   1.071   0.333 -0.0069  0.8907 -0.9359
 1584SOL    HW2 4809   4.562   1.085   0.266 -0.3322 -0.9935 -0.7310
 1585SOL     OW 4810   0.864   0.570   4.491  0.9143 -0.0078  0.4143
 1585SOL    HW1 4811   0.895   0.563   4.400 -0.1979  3.6974 -0.4559
 1585SOL    HW2 4812   0.933   0.620   4.535  1.1217 -1.1877  1.4661
 1586SOL     OW 4813   2.214   1.761   4.509 -0.6850  0.3736 -0.3490
 1586SOL    HW1 4814   2.161   1.787   4.585 -1.5448 -1.7251 -0.1646
 1586SOL    HW2 4815   2.157   1.775   4.434 -0.4464  0.8313 -0.4481
 1587SOL     OW 4816   3.484   2.655   0.563 -0.0753  0.2580 -0.4625
 1587SOL    HW1 4817   3.442   2.611   0.636  1.3821 -0.3672  0.0494
 1587SOL    HW2 4818   3.522   2.583   0.511  0.3810  0.7828 -0.8669
 1588SOL     OW 4819   4.856   3.187   3.017 -0.0805  0.7163  0.9130
 1588SOL    HW1 4820   4.928   3.149   3.067  0.1420 -0.6759 -0.3755
 1588SOL    HW2 4821   4.827   3.115   2.960 -1.5386  1.6846  0.3873
 1589SOL     OW 4822   4.306   4.718   3.426  0.2241  0.4627  0.5619
 1589SOL    HW1 4823   4.312   4.703   3.332  0.9367  0.4441  0.6043
 1589SOL    HW2 4824   4.335   4.808   3.438  1.6659 -0.0288  0.9174
 1590SOL     OW 4825   4.716   3.373   3.551 -0.9638 -0.3900 -0.0071
 1590SOL    HW1 4826   4.719   3.453   3.604  1.3888  1.3695 -2.5412
 1590SOL    HW2 4827   4.671   3.399   3.470  2.2461 -0.6798 -2.0582
 1591SOL     OW 4828   1.456   4.396   1.384 -0.0136 -0.2816  0.4417
 1591SOL    HW1 4829   1.411   4.423   1.304  0.9352 -0.6373 -0.2288
 1591SOL    HW2 4830   1.390   4.406   1.453 -1.0893 -0.6972 -0.4936
 1592SOL     OW 4831   4.397   1.077   3.753 -0.2311 -0.2627  0.3843
 1592SOL    HW1 4832   4.444   1.108   3.831  0.3654  0.3846 -0.2108
 1592SOL    HW2 4833   4.371   0.988   3.775  1.6540 -0.8119  0.6094
 1593SOL     OW 4834   0.001   0.743   4.811 -0.2445  0.5463 -0.2586
 1593SOL    HW1 4835  -0.048   0.794   4.747  0.5254  1.0471 -0.4489
 1593SOL    HW2 4836   0.092   0.766   4.797  0.0552 -0.3603  0.1204
 1594SOL     OW 4837   2.262   2.314   3.814 -0.3148 -0.0587  0.2486
 1594SOL    HW1 4838   2.337   2.278   3.766 -1.0813 -1.9319  0.3994
 1594SOL    HW2 4839   2.297   2.335   3.900  0.5220  1.1507 -0.3493
 1595SOL     OW 4840   0.785   4.517   4.769  0.2929  0.2017  0.2656
 1595SOL    HW1 4841   0.780   4.598   4.820 -0.2000  0.2854  0.0923
 1595SOL    HW2 4842   0.761   4.448   4.831 -3.0859  0.5603 -0.4598
 1596SOL     OW 4843   0.806   2.566   4.604 -0.2804 -0.6785 -0.0879
 1596SOL    HW1 4844   0.772   2.478   4.588  2.1105 -1.5543 -0.8091
 1596SOL    HW2 4845   0.859   2.557   4.684 -0.5784  0.2698  0.2204
 1597SOL     OW 4846   0.637   2.701   1.647  0.1125 -0.1790  0.0491
 1597SOL    HW1 4847   0.667   2.662   1.729  0.4366 -0.5452 -0.2342
 1597SOL    HW2 4848   0.564   2.646   1.619 -0.4036  0.3188  0.4044
 1598SOL     OW 4849   3.810   1.556   3.910  0.3855  0.5198 -0.4852
 1598SOL    HW1 4850   3.793   1.543   3.816 -0.7881  1.0184 -0.3685
 1598SOL    HW2 4851   3.786   1.472   3.950  0.1300  0.5591 -0.5521
 1599SOL     OW 4852   0.250   3.110   4.585 -0.9380 -0.4797 -0.1014
 1599SOL    HW1 4853   0.273   3.066   4.667 -1.4189 -1.6399 -0.5717
 1599SOL    HW2 4854   0.173   3.163   4.607 -1.2789 -1.0594  0.1137
 1600SOL     OW 4855   4.125   3.258   4.825 -0.0075 -0.3596 -0.4986
 1600SOL    HW1 4856   4.112   3.312   4.903  1.5894 -1.6364  0.7333
 1600SOL    HW2 4857   4.211   3.218   4.838  0.4517 -0.3531 -3.1062
 1601SOL     OW 4858   1.532   2.595   3.851 -0.2845  0.6010  0.6810
 1601SOL    HW1 4859   1.510   2.612   3.759  0.7362 -1.2704  0.0480
 1601SOL    HW2 4860   1.479   2.520   3.875  1.2928 -0.5155  0.8085
 1602SOL     OW 4861   0.702   1.318   4.108 -0.6403  0.1954  0.0671
 1602SOL    HW1 4862   0.773   1.373   4.140 -1.5494  2.5623 -1.7251
 1602SOL    HW2 4863   0.742   1.259   4.045  0.2412 -0.8316  1.5353
 1603SOL     OW 4864   3.780   4.217   4.794  0.1811  0.1647 -0.1242
 1603SOL    HW1 4865   3.743   4.285   4.738  1.9776  1.2662 -0.0414
 1603SOL    HW2 4866   3.736   4.136   4.765 -0.2306  0.9676 -1.9017
 1604SOL     OW 4867   2.669   1.461   2.464  0.3255  0.3107  0.4378
 1604SOL    HW1 4868   2.646   1.404   2.537  2.3148  0.5975  1.3636
 1604SOL    HW2 4869   2.669   1.549   2.502 -0.4982  0.6940 -0.4108
 1605SOL     OW 4870   1.581   0.020   2.577  0.1835  0.2825 -0.1449
 1605SOL    HW1 4871   1.606   0.001   2.668 -0.7313  0.9554  0.2688
 1605SOL    HW2 4872   1.623   0.104   2.558  0.0112  0.3604 -0.1832
 1606SOL     OW 4873   0.081   2.788   4.979 -0.1233  0.6832 -0.2845
 1606SOL    HW1 4874   0.143   2.732   4.933 -0.9344  0.1896 -0.8103
 1606SOL    HW2 4875  -0.005   2.752   4.957 -0.5936  1.1923  0.6280
 1607SOL     OW 4876   4.128   3.881   3.801  0.2231 -0.2213  0.2151
 1607SOL    HW1 4877   4.200   3.914   3.856  1.4106  3.4892 -3.1703
 1607SOL    HW2 4878   4.050   3.925   3.834  0.4090 -0.1955  0.6297
 1608SOL     OW 4879   1.478   1.212   3.707 -0.6300  0.5252  0.1275
 1608SOL    HW1 4880   1.475   1.170   3.793 -1.5192  0.7221  0.2052
 1608SOL    HW2 4881   1.561   1.260   3.707  0.3734 -1.1494  0.0506
 1609SOL     OW 4882   2.876   1.601   4.076  0.4413  0.1176 -0.4725
 1609SOL    HW1 4883   2.971   1.595   4.069  0.3088 -0.7496 -2.0386
 1609SOL    HW2 4884   2.845   1.515   4.048 -0.7983  0.2467  0.4374
 1610SOL     OW 4885   3.345   2.487   3.567  0.1545 -0.3178 -0.6572
 1610SOL    HW1 4886   3.440   2.504   3.570 -0.1565  1.8457 -1.5972
 1610SOL    HW2 4887   3.305   2.567   3.602 -1.3297 -1.6884  0.9385
 1611SOL     OW 4888   0.951   1.820   0.272 -0.3236  0.4052 -0.5482
 1611SOL    HW1 4889   0.906   1.863   0.345 -0.5188 -0.8288  0.0955
 1611SOL    HW2 4890   0.902   1.846   0.194 -1.1237  0.4362 -0.0418
 1612SOL     OW 4891   3.931   2.392   3.029  0.3673  0.7092 -0.0136
 1612SOL    HW1 4892   4.004   2.350   3.075 -0.0137  0.4794  0.3911
 1612SOL    HW2 4893   3.885   2.320   2.986 -1.1992  0.4327  1.9299
 1613SOL     OW 4894   4.544   2.435   3.352  0.1290  0.5113  0.8802
 1613SOL    HW1 4895   4.570   2.527   3.357  2.1193 -0.0363  1.2724
 1613SOL    HW2 4896   4.604   2.389   3.410 -0.1930 -1.1804 -0.0450
 1614SOL     OW 4897   3.088   4.634   0.824  0.7316 -0.4569  0.4032
 1614SOL    HW1 4898   3.080   4.696   0.752  3.2260  0.1177  0.5442
 1614SOL    HW2 4899   3.099   4.688   0.902 -2.0827 -1.0684  1.3660
 1615SOL     OW 4900   3.389   1.071   4.379  0.0385 -0.0550  0.2516
 1615SOL    HW1 4901   3.428   1.009   4.440  0.2479  0.0413  0.2162
 1615SOL    HW2 4902   3.382   1.024   4.296  0.2103 -0.0266  0.2210
 1616SOL     OW 4903   0.065   3.304   4.550 -0.1167  0.1196 -0.4363
 1616SOL    HW1 4904   0.093   3.273   4.463 -2.0345  1.0795 -1.4705
 1616SOL    HW2 4905  -0.030   3.314   4.542 -0.3326  0.3548  1.7725
 1617SOL     OW 4906   3.688   2.094   3.741  0.4029 -0.6900 -0.4535
 1617SOL    HW1 4907   3.674   2.052   3.826  0.6948  1.3726  0.6724
 1617SOL    HW2 4908   3.682   2.022   3.677  1.9572 -2.6284  1.4249
 1618SOL     OW 4909   1.192   4.184   2.317  0.5971  0.0627 -0.3360
 1618SOL    HW1 4910   1.214   4.261   2.265 -0.4609  1.4052  1.1011
 1618SOL    HW2 4911   1.166   4.118   2.253 -0.5211  1.6054 -1.5292
 1619SOL     OW 4912   2.505   0.793   1.340  0.2426  0.0759 -0.2153
 1619SOL    HW1 4913   2.507   0.703   1.309 -0.7344  0.0379 -0.1940
 1619SOL    HW2 4914   2.564   0.840   1.281  0.7900 -0.5791 -0.1984
 1620SOL     OW 4915   2.431   3.942   0.421  0.3600 -0.5987  0.2342
 1620SOL    HW1 4916   2.342   3.927   0.453  0.9587 -1.6946  1.5275
 1620SOL    HW2 4917   2.422   4.011   0.356 -1.3649 -0.3435  0.6810
 1621SOL     OW 4918   2.184   2.485   0.101  0.0753  0.1897 -0.1975
 1621SOL    HW1 4919   2.110   2.493   0.161  1.5751  0.5480  1.7181
 1621SOL    HW2 4920   2.193   2.572   0.063 -0.7460  0.0230 -0.8052
 1622SOL     OW 4921   1.616   1.881   2.685  0.0595 -0.4034  0.1082
 1622SOL    HW1 4922   1.529   1.915   2.708  1.0658  3.0441 -0.5901
 1622SOL    HW2 4923   1.635   1.918   2.599  2.9906  0.7411  1.1027
 1623SOL     OW 4924   0.681   1.627   4.350  0.0011 -0.8115  0.0721
 1623SOL    HW1 4925   0.701   1.639   4.257  0.7876 -1.3882  0.1606
 1623SOL    HW2 4926   0.766   1.616   4.392 -0.2635  0.4624  1.0273
 1624SOL     OW 4927   2.885   4.281   4.352  0.6530 -0.0462 -0.1763
 1624SOL    HW1 4928   2.807   4.337   4.354  0.8089  0.1655  0.1002
 1624SOL    HW2 4929   2.862   4.208   4.409  2.1668  2.0723  3.5430
 1625SOL     OW 4930   4.532   0.078   3.078 -0.0432  0.1257 -0.1268
 1625SOL    HW1 4931   4.541   0.169   3.107  1.3066 -0.9200  3.0792
 1625SOL    HW2 4932   4.591   0.070   3.004  1.7972  1.2826  1.1536
 1626SOL     OW 4933   0.467   2.540   3.984 -0.0457 -0.5795  0.3512
 1626SOL    HW1 4934   0.402   2.498   3.927 -1.7512  1.1088  0.9646
 1626SOL    HW2 4935   0.502   2.612   3.932 -1.4084  0.7951  1.2368
 1627SOL     OW 4936   0.847   3.559   4.311 -0.5352 -0.6542  0.2474
 1627SOL    HW1 4937   0.907   3.595   4.246 -0.0162 -0.8935  0.5850
 1627SOL    HW2 4938   0.902   3.536   4.385 -1.3629  1.4185  1.5947
 1628SOL     OW 4939   1.706   3.429   0.893  0.3774  0.0584 -0.0461
 1628SOL    HW1 4940   1.737   3.519   0.880  1.6916 -0.1511  1.2921
 1628SOL    HW2 4941   1.786   3.378   0.907 -0.2876 -1.4722 -1.4201
 1629SOL     OW 4942   1.917   2.767   2.234 -0.4598  0.5072  0.2393
 1629SOL    HW1 4943   1.905   2.773   2.329  1.0048  0.8342  0.4280
 1629SOL    HW2 4944   1.891   2.853   2.201  3.1095  2.0498  0.8989
 1630SOL     OW 4945   3.496   4.776   0.470 -0.2888  0.3303 -0.0725
 1630SOL    HW1 4946   3.468   4.686   0.454 -0.7258  0.8874 -3.1042
 1630SOL    HW2 4947   3.514   4.779   0.564 -0.9635 -2.6902  0.2726
 1631SOL     OW 4948   4.297   3.383   3.189 -0.1754 -0.2813  0.1671
 1631SOL    HW1 4949   4.261   3.382   3.100 -0.3923  0.3961  0.2398
 1631SOL    HW2 4950   4.234   3.334   3.241 -0.1407 -0.5223 -0.0153
 1632SOL     OW 4951   2.446   3.495   4.544  0.2520 -0.2215 -0.1021
 1632SOL    HW1 4952   2.541   3.502   4.541  0.2112  0.4538  0.0547
 1632SOL    HW2 4953   2.425   3.429   4.478  0.7182  0.7117 -1.2160
 1633SOL     OW 4954   3.853   2.793   2.294 -0.0317  0.4725 -0.1941
 1633SOL    HW1 4955   3.853   2.721   2.357 -3.0338 -0.3152 -0.9177
 1633SOL    HW2 4956   3.944   2.822   2.290  1.0938 -2.5291  0.9763
 1634SOL     OW 4957   3.667   0.916   0.362  0.2896 -0.5879  0.6675
 1634SOL    HW1 4958   3.610   0.909   0.285  0.0165  0.2805  0.7740
 1634SOL    HW2 4959   3.610   0.895   0.436  0.1120  0.2152  0.7684
 1635SOL     OW 4960   1.943   0.888   1.469 -0.1554 -0.2735 -0.3414
 1635SOL    HW1 4961   1.923   0.962   1.525 -0.8309  0.2388 -1.2285
 1635SOL    HW2 4962   1.865   0.833   1.471 -0.4967  0.1373 -1.3466
 1636SOL     OW 4963   4.978   2.541   2.172 -0.0655  0.2488  0.8772
 1636SOL    HW1 4964   5.058   2.488   2.174  0.5449  0.9594 -1.5475
 1636SOL    HW2 4965   4.909   2.480   2.200  0.8967 -1.2924  0.0792
 1637SOL     OW 4966   1.506   2.206   0.972  0.4423 -0.1579  0.7659
 1637SOL    HW1 4967   1.561   2.145   0.922 -0.8650 -0.3174 -0.5560
 1637SOL    HW2 4968   1.515   2.289   0.925 -1.4732 -0.5167 -0.3350
 1638SOL     OW 4969   4.585   0.438   2.186  0.3621 -0.5588  0.4222
 1638SOL    HW1 4970   4.580   0.529   2.215  1.1046 -0.8326  1.4780
 1638SOL    HW2 4971   4.568   0.442   2.092  1.7444  0.8446  0.1843
 1639SOL     OW 4972   4.997   0.161   0.432  0.1932 -0.8642 -0.2061
 1639SOL    HW1 4973   4.934   0.089   0.429 -1.1574  0.2026  1.2230
 1639SOL    HW2 4974   4.990   0.196   0.521 -0.7136  2.3512 -1.4235
 1640SOL     OW 4975   0.653   3.011   2.752  0.0982 -0.2037 -0.1194
 1640SOL    HW1 4976   0.736   3.060   2.753 -0.0930  0.1466  1.2619
 1640SOL    HW2 4977   0.587   3.077   2.732 -0.2391  0.3254  2.3989
 1641SOL     OW 4978   3.665   0.568   1.282 -0.1778  0.2879 -0.2879
 1641SOL    HW1 4979   3.761   0.560   1.286 -0.0552  0.1148 -2.4404
 1641SOL    HW2 4980   3.650   0.648   1.232 -1.1699  0.2851 -0.0186
 1642SOL     OW 4981   2.526   4.420   0.874 -0.3296  0.0678  0.4591
 1642SOL    HW1 4982   2.548   4.507   0.906 -1.4057  0.6195 -0.2560
 1642SOL    HW2 4983   2.570   4.360   0.936  0.4752  1.0932  0.9149
 1643SOL     OW 4984   4.129   1.165   0.565  0.3464 -0.3361 -0.0099
 1643SOL    HW1 4985   4.138   1.079   0.525  0.4090  0.0273 -0.7885
 1643SOL    HW2 4986   4.106   1.223   0.493  0.7003  0.3795  0.4394
 1644SOL     OW 4987   1.163   1.655   3.151  0.3876  0.5616  0.3002
 1644SOL    HW1 4988   1.159   1.675   3.057 -2.2548 -1.5586 -0.1738
 1644SOL    HW2 4989   1.079   1.612   3.169  0.9077  0.7180  3.6256
 1645SOL     OW 4990   3.748   0.589   2.441  0.6699 -0.4806 -0.4779
 1645SOL    HW1 4991   3.752   0.511   2.386 -2.0674 -0.8278 -0.3476
 1645SOL    HW2 4992   3.721   0.556   2.527 -1.1319  0.6062 -0.5779
 1646SOL     OW 4993   1.000   1.403   1.946 -0.2911 -0.5987 -0.0461
 1646SOL    HW1 4994   1.036   1.315   1.956  0.6450 -0.1585  0.6440
 1646SOL    HW2 4995   0.991   1.415   1.852 -1.2531 -1.7470 -0.1202
 1647SOL     OW 4996   0.006   1.321   0.446 -0.3357 -0.5791  0.2928
 1647SOL    HW1 4997  -0.011   1.231   0.474  1.7470 -1.1692 -0.1489
 1647SOL    HW2 4998   0.085   1.314   0.392 -0.7497  1.3770 -0.6245
 1648SOL     OW 4999   0.133   0.189   2.866  0.2313 -0.4837 -0.3310
 1648SOL    HW1 5000   0.157   0.270   2.820  0.4281 -0.1835  0.2910
 1648SOL    HW2 5001   0.078   0.142   2.804 -0.2826  0.3553 -0.5284
 1649SOL     OW 5002   2.086   3.906   2.588 -0.3253  0.4544  0.3640
 1649SOL    HW1 5003   2.084   3.903   2.493 -0.1841 -1.0082  0.3803
 1649SOL    HW2 5004   2.017   3.968   2.612 -0.3376  0.8595 -0.6827
 1650SOL     OW 5005   4.325   1.765   4.919 -0.4502  0.4102 -0.0498
 1650SOL    HW1 5006   4.283   1.812   4.990 -0.2540 -0.9093  0.9783
 1650SOL    HW2 5007   4.253   1.721   4.874 -0.4672  0.4065 -0.0189
 1651SOL     OW 5008   0.138   0.037   3.430 -0.1115  0.0334 -0.5663
 1651SOL    HW1 5009   0.061   0.040   3.373 -0.7887  1.8568  0.3523
 1651SOL    HW2 5010   0.195   0.107   3.397  1.3046 -1.4182 -1.3635
 1652SOL     OW 5011   2.229   4.404   1.572  0.2035 -0.1850 -0.0224
 1652SOL    HW1 5012   2.190   4.330   1.526  0.1043 -0.0989 -0.0771
 1652SOL    HW2 5013   2.155   4.463   1.591  0.2856 -0.0869 -0.0046
 1653SOL     OW 5014   4.048   0.463   1.941  0.1932 -0.0967 -0.3817
 1653SOL    HW1 5015   3.978   0.523   1.916 -0.5100 -0.4784  0.5852
 1653SOL    HW2 5016   4.094   0.444   1.860 -1.0096 -0.0503 -1.0973
 1654SOL     OW 5017   2.791   2.090   2.211 -0.2798  1.4636  0.8097
 1654SOL    HW1 5018   2.771   2.117   2.121 -0.9756  1.2534  0.8950
 1654SOL    HW2 5019   2.726   2.022   2.230  0.3378  0.9777  1.2115
 1655SOL     OW 5020   3.306   0.926   2.278 -0.4521 -0.1926  0.7912
 1655SOL    HW1 5021   3.386   0.892   2.237  0.6021  1.2270  1.5631
 1655SOL    HW2 5022   3.303   1.018   2.252 -2.0700 -0.3129  0.4595
 1656SOL     OW 5023   0.779   4.922   0.605 -0.1454  0.5474 -0.2230
 1656SOL    HW1 5024   0.714   4.963   0.547 -1.0384  0.8498  0.9527
 1656SOL    HW2 5025   0.727   4.877   0.672  0.8546  0.8999  0.8326
 1657SOL     OW 5026   4.350   1.462   1.944 -0.0537 -0.6528 -0.4061
 1657SOL    HW1 5027   4.401   1.483   1.866 -1.2685  0.4094 -0.9524
 1657SOL    HW2 5028   4.394   1.508   2.015  0.0560 -0.1930 -0.7698
 1658SOL     OW 5029   2.322   1.730   4.899 -0.1624  0.3623  0.3103
 1658SOL    HW1 5030   2.346   1.822   4.885 -0.1225  0.4848  1.1561
 1658SOL    HW2 5031   2.227   1.730   4.903 -0.2045  0.2321 -0.5907
 1659SOL     OW 5032   1.014   1.584   3.668  0.2461  0.1032 -0.5708
 1659SOL    HW1 5033   1.043   1.517   3.606 -0.4241  0.9396 -1.8413
 1659SOL    HW2 5034   1.092   1.638   3.682  0.2837  0.1901 -1.0821
 1660SOL     OW 5035   3.964   1.515   0.140  0.9316  0.5368 -0.2069
 1660SOL    HW1 5036   3.968   1.426   0.174 -0.4586 -0.1835 -1.7262
 1660SOL    HW2 5037   3.993   1.570   0.212  0.0523 -1.0113  1.4252
 1661SOL     OW 5038   1.652   3.847   1.145 -0.1749  0.1944 -0.2073
 1661SOL    HW1 5039   1.578   3.858   1.205 -0.2159 -1.2729  0.0333
 1661SOL    HW2 5040   1.619   3.792   1.074  0.4647  0.1752 -0.5043
 1662SOL     OW 5041   1.140   2.598   1.324 -0.2003  0.0405 -0.4410
 1662SOL    HW1 5042   1.072   2.575   1.259 -0.4018 -0.0055 -0.2149
 1662SOL    HW2 5043   1.207   2.643   1.273 -1.2676  1.8183 -0.3630
 1663SOL     OW 5044   0.912   3.754   0.070 -0.1538 -0.1523  0.0871
 1663SOL    HW1 5045   0.957   3.784   0.149  1.0312 -0.5793 -0.4053
 1663SOL    HW2 5046   0.856   3.683   0.100  1.3339 -1.2582  0.3564
 1664SOL     OW 5047   0.843   3.466   1.853 -0.1376 -0.1289  0.0471
 1664SOL    HW1 5048   0.929   3.463   1.895  1.1493 -1.1123 -2.4999
 1664SOL    HW2 5049   0.861   3.480   1.760 -2.7182 -0.7261 -0.6353
 1665SOL     OW 5050   1.841   4.010   1.492 -0.0627  0.2647  0.1350
 1665SOL    HW1 5051   1.759   4.060   1.490  1.0014  2.0720 -0.1758
 1665SOL    HW2 5052   1.859   3.996   1.585 -0.1825  0.7718  0.2352
 1666SOL     OW 5053   4.645   4.933   3.268  0.2686  0.0945 -0.2062
 1666SOL    HW1 5054   4.651   5.022   3.302  0.7082  0.3143 -0.8377
 1666SOL    HW2 5055   4.606   4.944   3.181  1.1855 -0.2336 -0.6653
 1667SOL     OW 5056   4.252   4.777   2.569  0.9021 -0.7173 -0.3809
 1667SOL    HW1 5057   4.177   4.810   2.618 -0.8786 -3.1755 -1.2503
 1667SOL    HW2 5058   4.258   4.834   2.492  1.4252  0.8883  0.7945
 1668SOL     OW 5059   3.199   0.846   2.521 -0.7594  0.1086  0.2133
 1668SOL    HW1 5060   3.275   0.792   2.541 -1.4870 -1.4008 -0.8872
 1668SOL    HW2 5061   3.218   0.883   2.435 -0.1103  1.9553  1.1136
 1669SOL     OW 5062   1.144   2.412   4.226  0.2984  0.3329  0.2861
 1669SOL    HW1 5063   1.204   2.347   4.262  1.1959  0.1933 -1.3370
 1669SOL    HW2 5064   1.084   2.361   4.171  1.9804  0.9066 -2.2844
 1670SOL     OW 5065   0.344   1.386   0.379 -0.7315  0.4822 -0.0760
 1670SOL    HW1 5066   0.437   1.394   0.357 -0.5777  2.1884  1.0574
 1670SOL    HW2 5067   0.326   1.292   0.371  1.5196 -0.1505  1.3565
 1671SOL     OW 5068   0.986   0.020   2.700 -0.1274  0.1626  0.3161
 1671SOL    HW1 5069   0.941   0.100   2.724 -0.7255 -0.2056  0.4439
 1671SOL    HW2 5070   0.928  -0.023   2.637 -0.6802 -1.0164  1.5622
 1672SOL     OW 5071   4.756   4.974   1.444  0.7974 -0.0993  0.1426
 1672SOL    HW1 5072   4.746   4.935   1.531  0.0292  0.2016  0.1904
 1672SOL    HW2 5073   4.681   5.032   1.434  1.0128  0.0612 -0.6243
 1673SOL     OW 5074   4.858   1.575   2.029  0.3287 -0.1301  0.0023
 1673SOL    HW1 5075   4.791   1.629   1.987 -0.0741 -0.8765 -0.3261
 1673SOL    HW2 5076   4.863   1.609   2.119 -0.2760  0.1315 -0.0557
 1674SOL     OW 5077   0.756   1.413   0.799  0.0101  0.4410 -0.0335
 1674SOL    HW1 5078   0.719   1.325   0.799 -0.2797  0.5614 -0.3461
 1674SOL    HW2 5079   0.817   1.413   0.873  0.4338 -0.1904 -0.3822
 1675SOL     OW 5080   4.066   0.650   2.874  0.0112 -0.3752  0.1967
 1675SOL    HW1 5081   4.097   0.739   2.859 -1.4766  0.1105 -0.1216
 1675SOL    HW2 5082   4.027   0.653   2.961 -2.4589  0.0317 -0.8408
 1676SOL     OW 5083   4.852   4.689   4.096  0.0025  0.3756 -0.0362
 1676SOL    HW1 5084   4.892   4.767   4.056  1.1451  0.0103  0.3428
 1676SOL    HW2 5085   4.918   4.620   4.085 -1.0157 -0.5596 -0.4052
 1677SOL     OW 5086   4.701   4.296   4.198 -0.2015  0.1230 -0.0233
 1677SOL    HW1 5087   4.702   4.340   4.283 -1.6991 -2.7600  1.6387
 1677SOL    HW2 5088   4.762   4.223   4.207 -1.4307 -1.0633 -0.8879
 1678SOL     OW 5089   0.890   2.073   4.547  0.1140  0.1704  0.6763
 1678SOL    HW1 5090   0.832   2.029   4.609 -0.0553 -0.0111  0.3929
 1678SOL    HW2 5091   0.857   2.047   4.461  1.6592 -1.3676  0.4914
 1679SOL     OW 5092   4.540   0.651   2.788  0.0545 -0.5668 -0.3231
 1679SOL    HW1 5093   4.609   0.715   2.772  0.6942 -1.4664 -1.2842
 1679SOL    HW2 5094   4.586   0.570   2.810 -0.7165 -0.9548 -0.0781
 1680SOL     OW 5095   1.653   3.273   2.260 -0.2483 -0.0667  0.2699
 1680SOL    HW1 5096   1.663   3.181   2.284  2.6634 -0.1293 -0.7239
 1680SOL    HW2 5097   1.696   3.280   2.175 -2.0622  1.8878 -0.5416
 1681SOL     OW 5098   4.810   0.875   0.047  0.1069 -0.2339 -0.2558
 1681SOL    HW1 5099   4.885   0.842  -0.002  0.6174  0.9179 -0.2716
 1681SOL    HW2 5100   4.818   0.970   0.043 -0.3476 -0.1026  1.2825
 1682SOL     OW 5101   0.480   0.112   4.835  0.5106  0.5605  0.2115
 1682SOL    HW1 5102   0.454   0.104   4.927 -1.7224  0.6776 -0.3342
 1682SOL    HW2 5103   0.506   0.023   4.809  0.9533  0.4864  0.9028
 1683SOL     OW 5104   3.659   1.193   1.908 -0.1970  0.0962  0.7212
 1683SOL    HW1 5105   3.564   1.189   1.910 -0.1361 -2.0139  1.3623
 1683SOL    HW2 5106   3.680   1.218   1.817 -1.3543 -1.0874  0.0943
 1684SOL     OW 5107   2.212   3.319   4.456 -0.1226 -0.1198  0.3317
 1684SOL    HW1 5108   2.273   3.306   4.384  0.3649 -0.6376  0.8172
 1684SOL    HW2 5109   2.130   3.344   4.415  0.1287 -0.4819 -0.4019
 1685SOL     OW 5110   2.229   1.018   4.663  0.7369 -0.0380  0.1023
 1685SOL    HW1 5111   2.212   1.040   4.572 -1.2619 -3.3652 -0.5382
 1685SOL    HW2 5112   2.299   0.952   4.659  0.9816  0.1571  1.0160
 1686SOL     OW 5113   0.497   4.618   2.866 -0.1250  0.2176 -0.0031
 1686SOL    HW1 5114   0.505   4.524   2.878  0.0821  0.2607  0.2008
 1686SOL    HW2 5115   0.583   4.646   2.835 -0.7982  0.0179 -2.2370
 1687SOL     OW 5116   1.002   4.304   3.510  0.0710  0.7440  0.2220
 1687SOL    HW1 5117   0.979   4.396   3.495 -1.2795  1.1824  3.9682
 1687SOL    HW2 5118   1.037   4.302   3.599  0.7449 -2.3140 -0.0017
 1688SOL     OW 5119   2.045   4.306   2.821 -0.4883 -0.2216  0.0575
 1688SOL    HW1 5120   2.092   4.234   2.863 -1.6144 -1.2461 -0.3644
 1688SOL    HW2 5121   1.964   4.315   2.871  0.6811  2.4993  1.6884
 1689SOL     OW 5122   2.762   0.536   1.307  0.7196  0.3299 -0.3748
 1689SOL    HW1 5123   2.825   0.465   1.293 -2.5646 -2.6483 -1.5988
 1689SOL    HW2 5124   2.722   0.515   1.392 -0.1719  0.8316 -0.6610
 1690SOL     OW 5125   4.144   1.538   4.910  0.3786  0.5095  0.1052
 1690SOL    HW1 5126   4.089   1.561   4.985  0.2055  0.0845  0.1086
 1690SOL    HW2 5127   4.217   1.488   4.948 -1.7926 -3.4085 -0.3809
 1691SOL     OW 5128   4.453   2.457   4.690 -0.0490 -0.0701 -0.2663
 1691SOL    HW1 5129   4.446   2.410   4.607  1.7006  1.3207 -1.2918
 1691SOL    HW2 5130   4.507   2.401   4.745 -0.6004 -0.6734 -0.3385
 1692SOL     OW 5131   4.353   4.747   1.832  0.1232 -0.4777  0.0670
 1692SOL    HW1 5132   4.415   4.761   1.904 -0.7573 -0.8209  0.9150
 1692SOL    HW2 5133   4.329   4.835   1.803 -0.8618 -0.2799  1.3954
 1693SOL     OW 5134   2.541   1.358   3.514 -0.3944  0.7178  0.0345
 1693SOL    HW1 5135   2.461   1.353   3.566 -0.0351 -0.0744  0.5385
 1693SOL    HW2 5136   2.612   1.364   3.579  0.1707 -1.6817 -0.2505
 1694SOL     OW 5137   0.560   0.940   0.457 -0.1032 -0.3218  0.1652
 1694SOL    HW1 5138   0.523   0.875   0.397 -0.1321  0.7584 -1.0419
 1694SOL    HW2 5139   0.613   0.889   0.518 -0.9952 -1.5792 -0.0599
 1695SOL     OW 5140   3.274   2.434   0.222  0.4900  0.2770 -0.4048
 1695SOL    HW1 5141   3.207   2.487   0.179  0.0910  1.4088  1.5063
 1695SOL    HW2 5142   3.236   2.410   0.306  1.8951 -0.3780  0.0842
 1696SOL     OW 5143   0.719   0.599   2.365  0.4130  0.0861 -0.4626
 1696SOL    HW1 5144   0.764   0.548   2.297  0.3228 -0.1726 -0.3289
 1696SOL    HW2 5145   0.789   0.634   2.419  0.5150  0.7162 -0.9834
 1697SOL     OW 5146   3.971   1.845   2.352  0.3162 -0.8254  0.1610
 1697SOL    HW1 5147   3.879   1.836   2.375  0.3127  1.4111  1.2385
 1697SOL    HW2 5148   3.974   1.824   2.258 -1.2338 -1.2181  0.1760
 1698SOL     OW 5149   4.842   4.113   4.505  0.7803 -0.4900 -0.3841
 1698SOL    HW1 5150   4.927   4.075   4.480  0.6111 -0.9683 -0.2536
 1698SOL    HW2 5151   4.792   4.039   4.540 -0.4215 -0.6501 -2.2847
 1699SOL     OW 5152   3.490   2.032   2.990  0.1000  0.4111 -1.0905
 1699SOL    HW1 5153   3.404   1.991   2.985 -0.3582  1.3973 -1.6117
 1699SOL    HW2 5154   3.547   1.976   2.937  0.5234 -1.9203  1.5921
 1700SOL     OW 5155   3.967   4.277   2.720  0.4985  0.1373 -0.0999
 1700SOL    HW1 5156   3.956   4.250   2.812 -0.1470  0.7416  0.0093
 1700SOL    HW2 5157   3.962   4.373   2.723 -0.4520  0.1286 -0.8688
 1701SOL     OW 5158   4.769   0.620   2.345  0.4209 -0.2209 -0.3397
 1701SOL    HW1 5159   4.823   0.640   2.268  1.1576  0.6024  0.3725
 1701SOL    HW2 5160   4.726   0.702   2.367 -0.2857 -0.6112 -0.2489
 1702SOL     OW 5161   4.880   0.001   2.159  0.2023  0.6059 -0.0486
 1702SOL    HW1 5162   4.831   0.082   2.171  1.0369  1.6222 -2.8044
 1702SOL    HW2 5163   4.818  -0.068   2.181 -1.1789  1.9269  0.3729
 1703SOL     OW 5164   0.236   4.466   0.978 -0.4858  0.2067  0.4931
 1703SOL    HW1 5165   0.310   4.425   1.023  0.7521  0.3144 -1.3278
 1703SOL    HW2 5166   0.199   4.396   0.925 -0.6710  0.5445  0.1761
 1704SOL     OW 5167   1.128   0.844   0.930 -0.1899  0.3328 -0.6881
 1704SOL    HW1 5168   1.048   0.843   0.983  0.0683  0.1145 -0.2991
 1704SOL    HW2 5169   1.099   0.874   0.844 -1.2291 -2.4793 -1.4296
 1705SOL     OW 5170   4.640   1.384   2.622  0.2512 -0.2049 -0.2091
 1705SOL    HW1 5171   4.552   1.345   2.616  0.9324 -1.7516 -0.6791
 1705SOL    HW2 5172   4.692   1.318   2.669  1.4003  0.2189 -0.8506
 1706SOL     OW 5173   2.501   0.392   2.894  0.3875 -0.0917 -0.2598
 1706SOL    HW1 5174   2.415   0.400   2.936  1.0917  0.7959  1.1115
 1706SOL    HW2 5175   2.563   0.414   2.964  1.6337  1.5548 -1.7903
 1707SOL     OW 5176   3.440   1.999   4.423 -0.0690 -0.0679 -0.4744
 1707SOL    HW1 5177   3.505   1.951   4.370  0.8266  1.5003 -0.8671
 1707SOL    HW2 5178   3.356   1.963   4.395  0.3138  1.0177 -3.3913
 1708SOL     OW 5179   4.048   4.602   3.037 -0.3282  0.1187 -0.3476
 1708SOL    HW1 5180   3.969   4.657   3.039  0.8575  1.9333 -0.8845
 1708SOL    HW2 5181   4.052   4.570   2.947  0.4879  1.5525 -0.8589
 1709SOL     OW 5182   4.852   2.785   4.476 -0.7778  0.2132 -0.4073
 1709SOL    HW1 5183   4.845   2.840   4.398  0.8099  1.1902  0.0747
 1709SOL    HW2 5184   4.888   2.703   4.443 -0.4419  0.4953 -0.7614
 1710SOL     OW 5185   3.304   0.514   2.320 -0.2948 -0.5872  0.3777
 1710SOL    HW1 5186   3.311   0.426   2.283 -2.1154 -0.4059 -0.4904
 1710SOL    HW2 5187   3.211   0.524   2.340 -0.5065  1.8708 -1.4004
 1711SOL     OW 5188   0.896   3.161   0.411  0.7373  0.2412  0.2529
 1711SOL    HW1 5189   0.944   3.095   0.461  2.1959  0.2937 -0.9925
 1711SOL    HW2 5190   0.887   3.235   0.471  0.5398 -0.4801  1.1280
 1712SOL     OW 5191   2.385   2.746   4.537  0.5325  0.3453  0.2035
 1712SOL    HW1 5192   2.450   2.681   4.563  1.2028  0.6803 -0.6205
 1712SOL    HW2 5193   2.304   2.696   4.528  1.4401 -0.8153 -2.4156
 1713SOL     OW 5194   0.041   1.178   3.391 -0.1155 -0.6191 -0.1686
 1713SOL    HW1 5195   0.078   1.264   3.369 -0.1463 -0.5875 -0.0967
 1713SOL    HW2 5196   0.108   1.116   3.363  0.2972 -0.5302  0.5905
 1714SOL     OW 5197   3.483   3.801   1.685  0.2122 -0.5858  0.4500
 1714SOL    HW1 5198   3.517   3.828   1.600  1.0881 -0.0169  0.9701
 1714SOL    HW2 5199   3.388   3.810   1.677  0.3675  0.8478 -0.0094
 1715SOL     OW 5200   0.750   4.883   3.376 -0.3492 -0.2557  0.4250
 1715SOL    HW1 5201   0.728   4.888   3.283 -1.6963  0.4875  0.7609
 1715SOL    HW2 5202   0.666   4.874   3.420  0.0255  1.9811  1.7458
 1716SOL     OW 5203   2.462   2.871   2.617  0.1639  0.2039  0.3824
 1716SOL    HW1 5204   2.539   2.901   2.666  0.2020  1.1647 -0.2321
 1716SOL    HW2 5205   2.392   2.931   2.643  0.3449  1.1405 -1.1897
 1717SOL     OW 5206   2.897   3.851   1.898  0.2526  0.3953 -0.4383
 1717SOL    HW1 5207   2.847   3.813   1.826  0.0336 -0.7177  0.2806
 1717SOL    HW2 5208   2.976   3.797   1.904 -0.6074 -0.7272  1.3570
 1718SOL     OW 5209   2.390   0.183   3.627 -0.1755 -0.0783  0.1908
 1718SOL    HW1 5210   2.461   0.132   3.589 -0.1169  1.4031 -1.8208
 1718SOL    HW2 5211   2.311   0.138   3.600 -0.1141  0.6695 -1.3152
 1719SOL     OW 5212   3.044   4.200   4.865 -0.0819 -0.5613  0.1697
 1719SOL    HW1 5213   3.057   4.256   4.788  0.0711  1.2603  1.4554
 1719SOL    HW2 5214   3.000   4.122   4.831  1.1769 -0.4124 -1.9564
 1720SOL     OW 5215   2.444   1.696   1.152  0.0628  0.4718 -0.6912
 1720SOL    HW1 5216   2.495   1.661   1.225 -0.1648  0.2776 -0.6222
 1720SOL    HW2 5217   2.495   1.675   1.074  0.2266  0.5318 -0.5997
 1721SOL     OW 5218   4.462   3.362   2.490 -0.1264  0.1123 -0.0102
 1721SOL    HW1 5219   4.533   3.396   2.544 -0.1478 -1.5001  1.0659
 1721SOL    HW2 5220   4.383   3.376   2.542 -0.3999  0.3173 -0.4683
 1722SOL     OW 5221   0.616   0.293   4.472 -0.1927 -0.4572 -0.3523
 1722SOL    HW1 5222   0.531   0.285   4.514  0.1090 -1.8370  0.0335
 1722SOL    HW2 5223   0.677   0.309   4.543  0.0816 -1.0284 -0.4573
 1723SOL     OW 5224   1.646   0.953   2.165 -0.0472  0.1384 -0.3986
 1723SOL    HW1 5225   1.559   0.932   2.198  0.4937 -0.5060  0.6856
 1723SOL    HW2 5226   1.687   1.002   2.236 -0.3543  2.6617 -1.8534
 1724SOL     OW 5227   2.167   3.607   2.948 -0.0944 -0.3155  0.2853
 1724SOL    HW1 5228   2.186   3.563   2.866 -1.4433 -0.0899 -0.1823
 1724SOL    HW2 5229   2.197   3.697   2.935 -0.6736 -0.1739 -0.1303
 1725SOL     OW 5230   1.693   4.297   0.693  0.2355 -0.6402 -0.1089
 1725SOL    HW1 5231   1.691   4.352   0.771  2.6767 -0.9885  0.2894
 1725SOL    HW2 5232   1.608   4.253   0.692 -1.1436  1.8552  0.4614
 1726SOL     OW 5233   1.823   0.664   0.887  0.2184  0.3975  0.0734
 1726SOL    HW1 5234   1.818   0.742   0.830 -3.0351 -1.5461 -2.7115
 1726SOL    HW2 5235   1.750   0.675   0.948 -2.1025 -1.4839 -2.1290
 1727SOL     OW 5236   0.162   3.070   2.052 -0.2257  0.0394 -0.6070
 1727SOL    HW1 5237   0.147   2.983   2.088  0.0496  0.4249  0.4665
 1727SOL    HW2 5238   0.223   3.112   2.114 -1.0602  1.3132 -0.6109
 1728SOL     OW 5239   3.677   4.223   0.071 -0.4876 -0.6150  0.0801
 1728SOL    HW1 5240   3.597   4.202   0.024 -0.9105  1.2645 -0.1137
 1728SOL    HW2 5241   3.745   4.227   0.004 -1.0935  2.0836 -0.4800
 1729SOL     OW 5242   3.889   2.996   0.439 -0.0014  0.2428  0.2923
 1729SOL    HW1 5243   3.855   2.925   0.493 -1.2714  0.9383  0.4585
 1729SOL    HW2 5244   3.925   2.952   0.362 -2.1769 -0.5397 -0.3672
 1730SOL     OW 5245   0.364   4.561   1.544 -0.5720  0.4898 -0.1911
 1730SOL    HW1 5246   0.391   4.577   1.634 -3.5885 -0.9699  1.1015
 1730SOL    HW2 5247   0.329   4.646   1.514  0.5875  1.0199 -0.1035
 1731SOL     OW 5248   1.694   4.101   1.121 -0.0737  0.1959  0.1148
 1731SOL    HW1 5249   1.706   4.006   1.118 -1.2712  0.0469 -1.3716
 1731SOL    HW2 5250   1.609   4.115   1.080 -0.6836  1.8047  1.7923
 1732SOL     OW 5251   2.774   3.666   0.776  0.1846  0.3212  0.3495
 1732SOL    HW1 5252   2.866   3.661   0.801  0.2114 -2.3371 -0.0578
 1732SOL    HW2 5253   2.775   3.676   0.681  0.1066 -1.3488  0.1420
 1733SOL     OW 5254   2.736   2.019   3.025  0.1522 -0.4160  0.1748
 1733SOL    HW1 5255   2.741   1.982   2.937  3.5293  0.2899 -0.0492
 1733SOL    HW2 5256   2.757   2.112   3.014  0.8500 -0.3569  1.7210
 1734SOL     OW 5257   3.400   2.251   0.047  0.4980  0.2767 -0.0118
 1734SOL    HW1 5258   3.456   2.252  -0.030 -0.9232 -0.7099 -1.1092
 1734SOL    HW2 5259   3.377   2.342   0.062 -2.0023  0.2596 -2.9313
 1735SOL     OW 5260   1.274   4.850   0.897  0.1470 -0.1869  0.3580
 1735SOL    HW1 5261   1.265   4.921   0.834 -0.1561 -0.1086  0.4843
 1735SOL    HW2 5262   1.322   4.782   0.851  1.2065  0.4316  0.5113
 1736SOL     OW 5263   3.895   4.893   3.967  0.3663 -0.0185  0.1439
 1736SOL    HW1 5264   3.961   4.832   3.999  1.0918 -0.0181 -1.2977
 1736SOL    HW2 5265   3.881   4.869   3.876 -0.0429  1.3493 -0.1867
 1737SOL     OW 5266   2.573   3.815   1.919 -0.2235  0.2548  0.0009
 1737SOL    HW1 5267   2.487   3.809   1.959  0.0138  1.3867  0.7156
 1737SOL    HW2 5268   2.557   3.853   1.832 -0.7659 -2.4252 -1.1945
 1738SOL     OW 5269   3.560   0.171  -0.015  0.4182  0.1234  0.2941
 1738SOL    HW1 5270   3.565   0.266  -0.005  1.3224  0.1736 -0.4054
 1738SOL    HW2 5271   3.570   0.137   0.074 -0.6370  0.6922  0.6407
 1739SOL     OW 5272   3.412   4.942   4.361 -0.8529  0.7368 -0.1740
 1739SOL    HW1 5273   3.372   5.005   4.421  0.5041  1.3508  0.1146
 1739SOL    HW2 5274   3.381   4.970   4.274 -1.6775  0.7074  0.1030
 1740SOL     OW 5275   0.896   4.539   3.913 -0.2677 -0.5439  0.0405
 1740SOL    HW1 5276   0.845   4.572   3.839 -0.1952 -1.5634 -0.4675
 1740SOL    HW2 5277   0.976   4.504   3.874  0.3014 -0.0381  0.7219
 1741SOL     OW 5278   0.286   1.006   2.252  0.7182  0.4534  0.3154
 1741SOL    HW1 5279   0.213   1.023   2.192  2.1740  0.8315 -1.4347
 1741SOL    HW2 5280   0.267   1.059   2.329 -0.9398  0.3844 -0.0034
 1742SOL     OW 5281   0.211   2.867   2.850 -0.2209  0.5008  0.3838
 1742SOL    HW1 5282   0.273   2.813   2.801  0.0647  0.0396  1.2339
 1742SOL    HW2 5283   0.231   2.956   2.823  0.4709  0.3180  0.2565
 1743SOL     OW 5284   1.822   4.769   2.792  0.5471  0.1807 -0.1783
 1743SOL    HW1 5285   1.742   4.820   2.782 -0.5205 -1.7771 -2.6934
 1743SOL    HW2 5286   1.884   4.809   2.730  1.2501  1.0770  1.0513
 1744SOL     OW 5287   2.613   4.477   2.206 -0.1248 -0.2659  0.5263
 1744SOL    HW1 5288   2.549   4.405   2.196 -1.5573  0.9647  0.4794
 1744SOL    HW2 5289   2.613   4.521   2.121  1.5683 -0.8201  0.2006
 1745SOL     OW 5290   0.800   1.154   1.114 -0.6104 -0.0605  0.1429
 1745SOL    HW1 5291   0.798   1.115   1.026 -1.4733 -1.5399  0.7724
 1745SOL    HW2 5292   0.794   1.079   1.173 -3.1004  1.0110  1.4260
 1746SOL     OW 5293   1.346   2.167   2.918 -0.1826 -0.0857 -0.2720
 1746SOL    HW1 5294   1.272   2.215   2.954  1.0714  2.4206 -0.8263
 1746SOL    HW2 5295   1.395   2.135   2.994 -1.5513 -1.4098  0.0939
 1747SOL     OW 5296   0.115   2.443   1.244  0.2566  0.5754  0.3487
 1747SOL    HW1 5297   0.086   2.455   1.154 -0.8150 -1.5170  0.3557
 1747SOL    HW2 5298   0.178   2.371   1.240  0.7916  0.9760  1.1923
 1748SOL     OW 5299   4.644   1.400   2.259 -0.5825  0.3247  0.1368
 1748SOL    HW1 5300   4.680   1.381   2.172 -0.7141  0.2843  0.0911
 1748SOL    HW2 5301   4.640   1.314   2.302 -0.6518  0.3252  0.1314
 1749SOL     OW 5302   3.998   1.868   0.905 -0.1978  0.0266 -0.7285
 1749SOL    HW1 5303   3.963   1.839   0.821  0.8082  0.8033 -1.4517
 1749SOL    HW2 5304   3.977   1.797   0.966  0.9158 -1.5677 -2.0965
 1750SOL     OW 5305   0.853   0.646   0.859  0.3255  0.3887  0.1257
 1750SOL    HW1 5306   0.818   0.693   0.934  0.3299 -1.4918  1.3729
 1750SOL    HW2 5307   0.779   0.595   0.827  0.9233 -0.6626  0.3789
 1751SOL     OW 5308   0.769   0.486   4.950  0.6879  0.1659  0.2445
 1751SOL    HW1 5309   0.714   0.542   5.003  2.0917  0.3632  1.5451
 1751SOL    HW2 5310   0.714   0.410   4.929 -0.0957  0.3872  1.4501
 1752SOL     OW 5311   3.072   1.848   1.965  0.2275  0.2642  0.4000
 1752SOL    HW1 5312   3.067   1.815   2.055  0.6314  0.1801  0.3929
 1752SOL    HW2 5313   2.992   1.900   1.954 -0.0651 -0.1286  0.6442
 1753SOL     OW 5314   2.513   4.069   3.430 -0.0896  0.1159 -0.2049
 1753SOL    HW1 5315   2.435   4.051   3.483 -0.3383  0.8838 -0.2953
 1753SOL    HW2 5316   2.558   4.138   3.478 -0.6394  1.2662 -1.2969
 1754SOL     OW 5317   1.792   3.677   0.889  0.3603  0.7613 -0.0758
 1754SOL    HW1 5318   1.827   3.746   0.945 -1.6537  1.1043  0.8390
 1754SOL    HW2 5319   1.738   3.722   0.825  0.3323  0.1383 -0.5065
 1755SOL     OW 5320   1.427   0.134   2.368  0.8541  0.0499 -0.2425
 1755SOL    HW1 5321   1.462   0.059   2.320  1.9168  1.3962 -1.6896
 1755SOL    HW2 5322   1.504   0.189   2.385  0.6873 -0.7157  3.8637
 1756SOL     OW 5323   0.495   3.224   4.281 -0.2050 -0.2497 -0.0425
 1756SOL    HW1 5324   0.556   3.271   4.338  0.9670 -1.5827 -0.1308
 1756SOL    HW2 5325   0.551   3.173   4.223 -1.2634  2.2149 -3.5772
 1757SOL     OW 5326   4.958   3.470   0.974  0.6012  0.2507  0.2008
 1757SOL    HW1 5327   4.964   3.502   0.884  2.7971 -0.1674  0.1198
 1757SOL    HW2 5328   4.931   3.379   0.964 -2.3918  1.0506  0.2297
 1758SOL     OW 5329   1.560   3.562   1.802  0.3452 -0.8846 -1.0576
 1758SOL    HW1 5330   1.488   3.544   1.742  0.0898 -2.2356 -0.3625
 1758SOL    HW2 5331   1.599   3.477   1.821  1.0480 -0.3724 -0.0775
 1759SOL     OW 5332   3.777   3.595   4.431 -0.3065 -0.2015  0.2407
 1759SOL    HW1 5333   3.720   3.568   4.502 -0.8574 -0.8247 -0.4186
 1759SOL    HW2 5334   3.859   3.620   4.474 -0.6700 -0.4397  1.0967
 1760SOL     OW 5335   0.820   0.095   1.828 -0.1298  0.6296  0.1311
 1760SOL    HW1 5336   0.736   0.052   1.813 -0.1633  0.7937 -0.1615
 1760SOL    HW2 5337   0.868   0.034   1.885 -0.1083  0.1151 -0.4261
 1761SOL     OW 5338   3.177   0.393   1.416 -0.3535 -0.2169  0.1009
 1761SOL    HW1 5339   3.129   0.407   1.334 -0.2240  0.2261  0.0962
 1761SOL    HW2 5340   3.129   0.446   1.480  1.3454  1.9942 -0.3430
 1762SOL     OW 5341   1.778   4.065   2.407 -0.0173 -0.0044  0.0078
 1762SOL    HW1 5342   1.835   4.115   2.465  1.6702  0.8478 -2.2239
 1762SOL    HW2 5343   1.762   3.983   2.454  0.9058  0.7913  1.8218
 1763SOL     OW 5344   2.614   2.427   0.515 -0.2947  0.6752 -0.3290
 1763SOL    HW1 5345   2.519   2.416   0.508 -0.2416  0.6163 -1.1053
 1763SOL    HW2 5346   2.628   2.521   0.505 -0.1996  0.5659 -1.3300
 1764SOL     OW 5347   3.162   2.188   2.226 -0.8336  0.4020 -0.1164
 1764SOL    HW1 5348   3.245   2.200   2.179 -0.1355 -1.4170  0.5660
 1764SOL    HW2 5349   3.098   2.237   2.174  0.1331 -0.4812 -2.2549
 1765SOL     OW 5350   0.091   0.203   4.337  0.1585 -0.3321 -0.2282
 1765SOL    HW1 5351   0.163   0.155   4.378  0.3474 -1.1342 -1.4688
 1765SOL    HW2 5352   0.014   0.148   4.352 -0.1743  0.3885  0.8484
 1766SOL     OW 5353   3.641   1.936   0.649 -0.2465  0.1458  0.0457
 1766SOL    HW1 5354   3.661   1.861   0.593 -0.7037  1.4847 -2.0231
 1766SOL    HW2 5355   3.725   1.979   0.662 -0.3038  0.5013 -0.6822
 1767SOL     OW 5356   3.435   0.894   0.192 -0.1192  0.2734  0.0413
 1767SOL    HW1 5357   3.388   0.830   0.246  0.9282  2.2714  3.6412
 1767SOL    HW2 5358   3.370   0.962   0.175 -1.1523 -1.3745 -3.5524
 1768SOL     OW 5359   2.193   1.573   0.572 -0.0621 -0.1497  0.4948
 1768SOL    HW1 5360   2.277   1.619   0.575 -0.0484 -0.2112  1.4187
 1768SOL    HW2 5361   2.129   1.642   0.553 -0.0383  0.2773  1.8525
 1769SOL     OW 5362   0.091   1.288   2.010  0.2574 -0.2938 -0.0676
 1769SOL    HW1 5363   0.120   1.366   2.056 -1.0478  0.5472 -0.6293
 1769SOL    HW2 5364  -0.003   1.298   2.001 -0.0601 -2.2719  0.4533
 1770SOL     OW 5365   1.468   2.099   4.305  0.9264 -0.3897 -0.2062
 1770SOL    HW1 5366   1.495   2.011   4.278 -0.3992 -0.4841 -1.3417
 1770SOL    HW2 5367   1.476   2.152   4.226 -0.4803 -0.0370 -0.1368
 1771SOL     OW 5368   4.536   1.178   4.910  0.2038  0.1392  0.1674
 1771SOL    HW1 5369   4.456   1.167   4.858  0.7125 -0.0109 -0.5888
 1771SOL    HW2 5370   4.518   1.129   4.991  0.4771 -2.1391 -1.0482
 1772SOL     OW 5371   0.546   4.379   1.399  0.4275  0.5092 -0.1161
 1772SOL    HW1 5372   0.537   4.474   1.406 -0.9888  0.3777  0.0359
 1772SOL    HW2 5373   0.466   4.343   1.437  1.3213 -0.7894  0.6304
 1773SOL     OW 5374   3.787   3.741   0.624 -0.5591 -0.5148 -0.1214
 1773SOL    HW1 5375   3.760   3.651   0.607  0.3005 -0.7808 -0.1006
 1773SOL    HW2 5376   3.738   3.793   0.559 -1.6639 -0.8904  0.3796
 1774SOL     OW 5377   1.527   4.046   1.912 -0.4155  0.1995 -0.3871
 1774SOL    HW1 5378   1.499   3.960   1.942 -1.0935  0.2896 -0.7543
 1774SOL    HW2 5379   1.577   4.028   1.832  1.9833 -0.1063  1.0654
 1775SOL     OW 5380   2.619   4.971   3.577  0.2796  0.4679  0.4595
 1775SOL    HW1 5381   2.673   5.043   3.608  0.8826 -0.3033  1.2865
 1775SOL    HW2 5382   2.680   4.897   3.568  0.1350  0.5802 -2.5488
 1776SOL     OW 5383   0.979   2.118   3.235  0.8727 -0.6196  0.3825
 1776SOL    HW1 5384   1.050   2.176   3.263 -0.4146  1.0677  0.2746
 1776SOL    HW2 5385   0.914   2.125   3.305 -0.1463 -0.3966 -0.5707
 1777SOL     OW 5386   2.921   1.257   4.735  0.0304 -0.3228  0.0228
 1777SOL    HW1 5387   2.996   1.214   4.777 -0.2520 -0.7542  0.0946
 1777SOL    HW2 5388   2.864   1.185   4.710 -0.0106 -0.0388 -0.7104
 1778SOL     OW 5389   4.346   1.884   4.065 -0.8505 -1.0158 -0.5741
 1778SOL    HW1 5390   4.429   1.875   4.112 -0.3335  1.2054 -0.9705
 1778SOL    HW2 5391   4.371   1.885   3.973 -1.4577 -1.4291 -0.7491
 1779SOL     OW 5392   3.864   3.859   0.257  1.1941 -0.0161 -0.0561
 1779SOL    HW1 5393   3.900   3.938   0.217  1.5202 -0.1122  0.0417
 1779SOL    HW2 5394   3.770   3.864   0.240  0.9912  1.1451  1.2093
 1780SOL     OW 5395   1.089   2.994   0.572 -0.0220  0.2152 -0.7214
 1780SOL    HW1 5396   1.166   3.045   0.595 -0.4283  1.2417 -1.5477
 1780SOL    HW2 5397   1.099   2.912   0.619  1.3583  0.5030 -0.4831
 1781SOL     OW 5398   0.480   4.897   4.270 -0.1170  0.5295  0.1946
 1781SOL    HW1 5399   0.547   4.957   4.235 -1.0435  1.1923 -0.5002
 1781SOL    HW2 5400   0.527   4.816   4.287  0.6126  0.5213 -1.6126
 1782SOL     OW 5401   2.196   2.752   2.245 -0.1403  0.0777 -0.1039
 1782SOL    HW1 5402   2.215   2.681   2.183 -0.1393 -0.7805  0.8592
 1782SOL    HW2 5403   2.100   2.754   2.249 -0.1450 -0.8790  0.9601
 1783SOL     OW 5404   4.272   4.884   2.317  0.2529  0.4041 -0.3657
 1783SOL    HW1 5405   4.285   4.964   2.267 -0.7307  2.6464  2.6835
 1783SOL    HW2 5406   4.207   4.834   2.267 -0.3478  2.2865 -1.5512
 1784SOL     OW 5407   2.266   0.934   1.302  0.1452  0.0009 -0.3892
 1784SOL    HW1 5408   2.306   0.961   1.219 -0.2074  0.2933 -0.4700
 1784SOL    HW2 5409   2.325   0.867   1.336 -0.1423 -0.7297 -1.2816
 1785SOL     OW 5410   1.906   0.329   0.380 -0.4892 -0.3863 -0.2373
 1785SOL    HW1 5411   1.920   0.292   0.292 -0.7285 -2.6984  0.6321
 1785SOL    HW2 5412   1.975   0.289   0.433 -0.4266  0.9034  0.6661
 1786SOL     OW 5413   0.256   0.635   0.730 -0.3391 -0.5910  0.2274
 1786SOL    HW1 5414   0.253   0.718   0.777 -0.5507 -0.3442 -0.2197
 1786SOL    HW2 5415   0.270   0.570   0.799 -1.7906 -0.3619  0.7819
 1787SOL     OW 5416   1.628   3.879   2.177 -0.1123 -0.0343 -0.0026
 1787SOL    HW1 5417   1.715   3.880   2.217  0.2426 -0.0703 -0.7420
 1787SOL    HW2 5418   1.576   3.823   2.234  0.1821  0.4835  0.7837
 1788SOL     OW 5419   2.872   2.957   3.613  0.0137  0.2201 -0.0327
 1788SOL    HW1 5420   2.812   2.964   3.687  1.0334  0.7193  0.7618
 1788SOL    HW2 5421   2.910   3.044   3.604 -1.1577  0.6018 -2.1040
 1789SOL     OW 5422   3.789   2.495   3.245 -0.2572  0.5746 -0.1220
 1789SOL    HW1 5423   3.705   2.538   3.229 -1.3618 -1.1365  0.6944
 1789SOL    HW2 5424   3.808   2.449   3.163  0.2210  1.4598 -0.5193
 1790SOL     OW 5425   3.862   0.722   4.180  0.1675  0.1592 -0.0036
 1790SOL    HW1 5426   3.899   0.788   4.238  0.0560 -0.3203  0.6222
 1790SOL    HW2 5427   3.922   0.647   4.187 -0.7505 -0.5248  0.8151
 1791SOL     OW 5428   2.057   4.880   1.494 -0.0633  0.1821  0.0722
 1791SOL    HW1 5429   2.098   4.845   1.573  0.2945  2.8182  1.1592
 1791SOL    HW2 5430   2.099   4.965   1.481 -1.7151  0.8033 -1.6652
 1792SOL     OW 5431   4.434   1.044   4.014  0.6536  0.1181  0.1591
 1792SOL    HW1 5432   4.491   1.112   4.050 -0.6478  1.1981  0.2486
 1792SOL    HW2 5433   4.389   1.008   4.090 -0.3627  0.7808 -0.1048
 1793SOL     OW 5434   0.702   4.344   2.984  0.0136  0.1111  0.1331
 1793SOL    HW1 5435   0.619   4.362   2.939  1.3204  3.5778 -1.2686
 1793SOL    HW2 5436   0.718   4.423   3.036  2.0037 -0.8643  1.0754
 1794SOL     OW 5437   2.647   0.427   1.513 -0.4442  0.6883 -0.5634
 1794SOL    HW1 5438   2.702   0.354   1.541  0.8668  0.8985 -2.4233
 1794SOL    HW2 5439   2.635   0.480   1.592  1.4300  0.2507  0.0602
 1795SOL     OW 5440   4.721   4.829   2.990 -0.5340 -0.1626 -0.3214
 1795SOL    HW1 5441   4.642   4.812   3.041 -1.7015  1.1209 -1.5982
 1795SOL    HW2 5442   4.786   4.859   3.054 -1.2610 -0.6595  0.6617
 1796SOL     OW 5443   3.191   2.268   4.363  0.1135  0.0788 -0.5286
 1796SOL    HW1 5444   3.119   2.205   4.363  0.3632 -0.2656  1.4831
 1796SOL    HW2 5445   3.161   2.337   4.304 -1.8033 -0.1264  0.1210
 1797SOL     OW 5446   0.216   2.459   1.685  0.3511 -0.0961  0.1429
 1797SOL    HW1 5447   0.309   2.471   1.664 -0.0446  1.8441 -0.7461
 1797SOL    HW2 5448   0.205   2.502   1.769  0.1407  0.2074 -0.0400
 1798SOL     OW 5449   1.162   3.944   0.793  0.1159  0.2931  0.6386
 1798SOL    HW1 5450   1.170   3.900   0.877 -2.0595 -1.2510  0.1305
 1798SOL    HW2 5451   1.074   3.981   0.792  0.6765  1.7481 -0.3418
 1799SOL     OW 5452   4.295   2.263   3.926  0.5208 -0.5091 -0.0516
 1799SOL    HW1 5453   4.231   2.213   3.875 -0.3504  1.6539 -1.2065
 1799SOL    HW2 5454   4.243   2.307   3.993  0.9844  0.1873 -0.1383
 1800SOL     OW 5455   3.108   0.119   4.052  0.4136  0.1710 -0.4425
 1800SOL    HW1 5456   3.111   0.199   4.104  0.4908 -0.3376  0.3665
 1800SOL    HW2 5457   3.190   0.074   4.075 -0.0078 -0.5127 -0.2562
 1801SOL     OW 5458   4.785   1.247   0.864  0.4255 -0.2345 -0.2876
 1801SOL    HW1 5459   4.704   1.277   0.906  0.5752 -0.2928  0.0424
 1801SOL    HW2 5460   4.853   1.263   0.928  1.2166  2.7664 -1.7033
 1802SOL     OW 5461   4.024   3.021   4.757 -0.2594  0.1559 -0.3221
 1802SOL    HW1 5462   4.076   3.035   4.678 -1.4516  1.3924 -0.9149
 1802SOL    HW2 5463   4.020   3.107   4.800  0.9917 -0.6365  1.5107
 1803SOL     OW 5464   0.078   4.641   3.088 -0.2169  0.5544  0.1534
 1803SOL    HW1 5465   0.129   4.664   3.010 -1.8875  0.5371 -0.9872
 1803SOL    HW2 5466   0.021   4.716   3.103 -2.1343 -0.6771 -0.5687
 1804SOL     OW 5467   2.942   3.009   4.996  0.0204 -0.1787 -0.3402
 1804SOL    HW1 5468   2.982   2.946   4.938 -1.2079 -1.2875 -0.0286
 1804SOL    HW2 5469   2.918   3.083   4.940  0.3233 -0.5356 -0.9383
 1805SOL     OW 5470   3.258   2.030   0.440  0.6674  0.3047 -0.0621
 1805SOL    HW1 5471   3.330   2.062   0.495  0.0600  0.8989  0.4131
 1805SOL    HW2 5472   3.297   1.961   0.387  1.4383  0.1803  0.6403
 1806SOL     OW 5473   3.011   0.782   3.760  0.3258 -0.4330  0.1141
 1806SOL    HW1 5474   3.085   0.806   3.705  1.6378  1.9803  2.7190
 1806SOL    HW2 5475   2.968   0.865   3.781 -0.0871 -1.2301  2.7191
 1807SOL     OW 5476   3.000   0.270   0.762  0.7077  0.5685 -0.0586
 1807SOL    HW1 5477   2.995   0.355   0.806  1.0815 -0.0850  1.2818
 1807SOL    HW2 5478   3.092   0.245   0.768  0.3856 -0.5192  0.7466
 1808SOL     OW 5479   4.844   3.575   4.286 -0.0817  0.0817  0.5416
 1808SOL    HW1 5480   4.905   3.614   4.223 -0.2900  1.9067  1.3985
 1808SOL    HW2 5481   4.847   3.481   4.267 -0.1858  0.5397 -2.2092
 1809SOL     OW 5482   1.513   1.032   3.923  0.0705  0.0187  0.0851
 1809SOL    HW1 5483   1.429   1.026   3.968  0.8673  1.6036  1.9709
 1809SOL    HW2 5484   1.570   1.077   3.986  2.0041  0.0287 -1.5734
 1810SOL     OW 5485   2.866   3.625   2.917 -0.0638 -0.2399 -0.2925
 1810SOL    HW1 5486   2.952   3.588   2.936 -0.1210 -0.5351 -0.5999
 1810SOL    HW2 5487   2.843   3.590   2.830 -0.6182 -0.3972 -0.0887
 1811SOL     OW 5488   0.488   2.473   1.610 -0.0427 -0.3914  0.1495
 1811SOL    HW1 5489   0.501   2.474   1.515 -0.3237 -1.2965  0.0908
 1811SOL    HW2 5490   0.516   2.385   1.637 -1.2766 -0.6411  0.7005
 1812SOL     OW 5491   4.174   2.770   3.214  1.0014 -0.2228  0.0031
 1812SOL    HW1 5492   4.085   2.746   3.240  1.2673  0.2006  1.3654
 1812SOL    HW2 5493   4.181   2.741   3.123 -1.4080  2.0630 -1.0613
 1813SOL     OW 5494   2.749   1.417   3.687 -0.4417 -0.0932 -0.1447
 1813SOL    HW1 5495   2.792   1.502   3.689  2.5869 -1.3774 -2.2911
 1813SOL    HW2 5496   2.756   1.385   3.777  1.3540  0.6427  0.0274
 1814SOL     OW 5497   4.324   3.680   1.802 -0.1970 -0.8974 -0.0045
 1814SOL    HW1 5498   4.359   3.592   1.792  0.3869 -0.7165  0.3482
 1814SOL    HW2 5499   4.317   3.715   1.713  1.6195 -0.5332 -0.0413
 1815SOL     OW 5500   4.820   0.979   2.225  0.3138  0.2458 -0.2084
 1815SOL    HW1 5501   4.904   1.007   2.187  0.4698 -1.0013 -0.8336
 1815SOL    HW2 5502   4.801   0.895   2.182 -0.6371 -0.1020  0.8458
 1816SOL     OW 5503   3.516   1.781   3.669  0.3306 -0.0180  0.0836
 1816SOL    HW1 5504   3.511   1.830   3.751  0.7350  0.6276 -0.2795
 1816SOL    HW2 5505   3.600   1.735   3.673 -0.3499 -1.2703  0.7398
 1817SOL     OW 5506   2.413   2.432   4.040 -0.1567 -0.1960  0.5357
 1817SOL    HW1 5507   2.391   2.478   4.121 -0.6173 -0.6014  0.6433
 1817SOL    HW2 5508   2.446   2.347   4.068  0.9500  0.1593  0.3464
 1818SOL     OW 5509   2.461   3.746   1.419  0.3162  0.2589 -0.1734
 1818SOL    HW1 5510   2.381   3.796   1.403 -0.1637 -0.9309 -1.6378
 1818SOL    HW2 5511   2.527   3.813   1.438 -0.9902  1.2612  1.0759
 1819SOL     OW 5512   2.349   2.704   3.099  0.0121 -0.3009  0.4050
 1819SOL    HW1 5513   2.403   2.755   3.159 -1.5614  0.6158  1.0946
 1819SOL    HW2 5514   2.339   2.761   3.023  1.1106 -1.0306 -0.3250
 1820SOL     OW 5515   0.134   3.282   2.239 -0.6421  0.0217 -0.4304
 1820SOL    HW1 5516   0.133   3.188   2.258  0.8528  0.5092  2.8201
 1820SOL    HW2 5517   0.055   3.315   2.281 -0.6428  0.3302 -0.6814
 1821SOL     OW 5518   3.581   1.527   2.859 -0.0640 -1.1963 -0.0567
 1821SOL    HW1 5519   3.645   1.494   2.796 -1.0038  1.1362 -2.4240
 1821SOL    HW2 5520   3.630   1.590   2.912  0.1733 -1.3115 -0.1382
 1822SOL     OW 5521   2.841   1.458   0.971  0.1079 -0.2296 -0.4039
 1822SOL    HW1 5522   2.746   1.465   0.964 -0.2117 -2.0142  1.3970
 1822SOL    HW2 5523   2.866   1.532   1.026 -0.6403 -1.3654  1.5391
 1823SOL     OW 5524   2.735   3.739   4.831  0.4424 -0.7820  0.1676
 1823SOL    HW1 5525   2.643   3.746   4.805  0.7122 -1.0255 -0.8945
 1823SOL    HW2 5526   2.783   3.782   4.761  1.1004  0.1339  1.1395
 1824SOL     OW 5527   2.702   1.266   3.061  0.3918  0.3124 -0.5067
 1824SOL    HW1 5528   2.617   1.303   3.038  0.4645  0.2663 -0.8550
 1824SOL    HW2 5529   2.699   1.255   3.156 -0.1454 -0.0717 -0.5676
 1825SOL     OW 5530   3.542   4.118   2.372  0.0306 -0.3103  0.3778
 1825SOL    HW1 5531   3.607   4.168   2.322  1.3451 -0.5819  1.7624
 1825SOL    HW2 5532   3.516   4.048   2.312 -0.6236  1.0108 -0.9839
 1826SOL     OW 5533   1.926   4.326   4.218 -0.3944  0.2185 -0.1136
 1826SOL    HW1 5534   1.976   4.408   4.214 -2.4949  1.6005 -0.1830
 1826SOL    HW2 5535   1.845   4.346   4.170 -1.4436 -1.5446  0.8161
 1827SOL     OW 5536   2.842   0.143   4.121 -0.5210  0.6834 -0.4642
 1827SOL    HW1 5537   2.920   0.099   4.086 -0.8745 -0.1004 -0.2922
 1827SOL    HW2 5538   2.798   0.179   4.044  0.6310  2.1976 -0.4533
 1828SOL     OW 5539   0.478   1.126   0.942  0.2881 -0.2397  0.9048
 1828SOL    HW1 5540   0.517   1.206   0.977 -0.1159 -0.1049  1.0543
 1828SOL    HW2 5541   0.389   1.125   0.978 -0.6848  0.6993 -1.3111
 1829SOL     OW 5542   1.527   0.274   1.601 -0.0315  0.3503  0.0943
 1829SOL    HW1 5543   1.449   0.298   1.651  0.4918  0.9418  0.6575
 1829SOL    HW2 5544   1.499   0.279   1.509 -0.1915  2.3848  0.1973
 1830SOL     OW 5545   3.811   4.532   1.768  0.1687  0.2178 -0.1391
 1830SOL    HW1 5546   3.888   4.531   1.711  1.6881 -0.5434  1.8129
 1830SOL    HW2 5547   3.846   4.547   1.855 -1.8486 -0.7916  0.9106
 1831SOL     OW 5548   3.125   4.530   4.889 -0.0062 -0.1893 -0.1535
 1831SOL    HW1 5549   3.094   4.467   4.824 -0.2670 -0.2675  0.0421
 1831SOL    HW2 5550   3.045   4.562   4.931  0.1952 -0.8257  0.7633
 1832SOL     OW 5551   2.235   3.529   3.378  0.2797 -0.8097 -0.1683
 1832SOL    HW1 5552   2.323   3.509   3.409  0.5117 -0.9400 -0.8894
 1832SOL    HW2 5553   2.242   3.526   3.282 -0.4523 -0.5866 -0.2358
 1833SOL     OW 5554   3.710   0.385   0.079 -0.0260  0.5692  0.3089
 1833SOL    HW1 5555   3.772   0.400   0.150  0.5664 -0.1188 -0.0573
 1833SOL    HW2 5556   3.642   0.451   0.093 -1.5644 -1.4237  3.3443
 1834SOL     OW 5557   0.402   2.653   2.720 -0.3784  0.3366 -0.2745
 1834SOL    HW1 5558   0.448   2.716   2.664  0.9624  0.3848  0.8139
 1834SOL    HW2 5559   0.466   2.583   2.734 -1.5669 -0.8916 -0.7920
 1835SOL     OW 5560   1.189   2.969   1.799  0.3364  0.5746 -0.2341
 1835SOL    HW1 5561   1.236   2.987   1.880  0.1695  1.1465 -0.2576
 1835SOL    HW2 5562   1.257   2.954   1.734  0.5537 -2.9995  0.6046
 1836SOL     OW 5563   4.205   0.932   0.424  0.1503 -0.3484 -0.0072
 1836SOL    HW1 5564   4.249   0.912   0.341 -0.5733 -0.8024 -0.2864
 1836SOL    HW2 5565   4.119   0.892   0.416 -0.1848  0.2119  0.6884
 1837SOL     OW 5566   2.475   1.952   3.936  0.3920 -0.9190 -0.4244
 1837SOL    HW1 5567   2.522   1.877   3.972 -0.0870 -0.7092  0.6930
 1837SOL    HW2 5568   2.497   1.953   3.843  2.3468 -0.9837  0.0111
 1838SOL     OW 5569   1.173   1.738   4.685  0.0364 -0.3154 -0.0344
 1838SOL    HW1 5570   1.191   1.707   4.774 -0.4960  2.0597  1.0051
 1838SOL    HW2 5571   1.089   1.784   4.693  0.0456  0.0572 -1.7503
 1839SOL     OW 5572   4.612   4.877   0.684  0.4797 -0.1238 -0.5779
 1839SOL    HW1 5573   4.627   4.814   0.755 -0.9777  2.0509  1.8479
 1839SOL    HW2 5574   4.532   4.845   0.641  0.2560 -0.4419  0.0532
 1840SOL     OW 5575   1.049   3.673   4.172  0.0621 -1.1313 -0.1349
 1840SOL    HW1 5576   0.997   3.732   4.117  0.6724  0.0896  0.5376
 1840SOL    HW2 5577   1.139   3.687   4.142  0.4146 -0.4045  1.1670
 1841SOL     OW 5578   0.245   2.018   2.407  0.1416 -0.0441  0.2630
 1841SOL    HW1 5579   0.252   2.075   2.331 -0.1710  0.4656  0.6007
 1841SOL    HW2 5580   0.153   2.026   2.434  0.5782  1.0173  1.6046
 1842SOL     OW 5581   1.838   2.007   4.707  0.0358 -0.3123 -0.1585
 1842SOL    HW1 5582   1.801   1.994   4.794 -2.2568 -0.3678 -1.0593
 1842SOL    HW2 5583   1.763   2.030   4.652  1.2726 -0.9669 -2.2706
 1843SOL     OW 5584   4.339   4.933   1.133 -0.7449  0.7438  0.5126
 1843SOL    HW1 5585   4.252   4.893   1.129 -0.2818 -0.4167  1.4650
 1843SOL    HW2 5586   4.353   4.949   1.227 -0.2561  1.6810  0.2897
 1844SOL     OW 5587   2.994   2.469   2.859 -0.3708  0.0556 -0.1157
 1844SOL    HW1 5588   3.062   2.503   2.916 -1.9502  0.8631  1.3742
 1844SOL    HW2 5589   3.037   2.400   2.808  0.9620 -1.2848  2.6024
 1845SOL     OW 5590   2.320   4.359   3.112 -0.2706  0.0109  0.5428
 1845SOL    HW1 5591   2.274   4.421   3.056 -1.1909 -0.8527  0.3127
 1845SOL    HW2 5592   2.396   4.408   3.146  0.5330  0.4510 -1.7213
 1846SOL     OW 5593   0.181   3.461   1.180 -0.1495 -0.1743  0.1932
 1846SOL    HW1 5594   0.104   3.443   1.127 -0.3811  0.5992  0.2619
 1846SOL    HW2 5595   0.220   3.539   1.141  0.0772 -0.0201  0.7225
 1847SOL     OW 5596   3.571   0.173   3.513  0.3322 -0.0826  0.1105
 1847SOL    HW1 5597   3.575   0.231   3.438  2.0275  0.9256  0.9301
 1847SOL    HW2 5598   3.556   0.086   3.475  1.8481  0.2949 -1.4427
 1848SOL     OW 5599   1.573   2.224   0.453 -1.1049  0.0508  0.2939
 1848SOL    HW1 5600   1.607   2.191   0.536 -0.4209 -1.2927 -0.4800
 1848SOL    HW2 5601   1.584   2.319   0.458  2.3711 -0.2307  0.3167
 1849SOL     OW 5602   3.771   2.191   2.946 -0.1827 -0.0221  0.2883
 1849SOL    HW1 5603   3.764   2.099   2.920 -1.8355  0.2658 -0.4492
 1849SOL    HW2 5604   3.680   2.219   2.956  0.3115  1.4432  0.8382
 1850SOL     OW 5605   0.588   1.617   0.924  0.1861  0.4871 -0.6037
 1850SOL    HW1 5606   0.504   1.580   0.949 -0.1566  1.4573 -0.2830
 1850SOL    HW2 5607   0.626   1.552   0.864  0.3586 -1.1787  1.1839
 1851SOL     OW 5608   2.616   1.723   3.977 -0.2515  0.4100 -0.1972
 1851SOL    HW1 5609   2.693   1.670   3.955 -0.1495  0.4927 -0.0356
 1851SOL    HW2 5610   2.594   1.698   4.066 -2.1350 -1.7334 -1.1626
 1852SOL     OW 5611   2.461   0.865   3.434 -0.2184  0.4233 -0.3275
 1852SOL    HW1 5612   2.375   0.823   3.443 -1.2824  2.3596 -0.7993
 1852SOL    HW2 5613   2.479   0.900   3.521  1.1100 -1.7024  0.3159
 1853SOL     OW 5614   1.359   2.080   4.807  0.0025 -0.6771  0.6017
 1853SOL    HW1 5615   1.426   2.145   4.789  0.0900 -0.3257  2.0381
 1853SOL    HW2 5616   1.325   2.055   4.721  0.9758  0.1873 -0.0521
 1854SOL     OW 5617   2.166   4.768   3.714 -0.1611 -0.2571 -0.5045
 1854SOL    HW1 5618   2.261   4.770   3.711 -0.1696  1.5756 -1.6815
 1854SOL    HW2 5619   2.145   4.712   3.788  1.8378 -0.2971  0.0927
 1855SOL     OW 5620   2.621   1.853   0.824 -0.3397 -0.4872  0.4000
 1855SOL    HW1 5621   2.608   1.911   0.898 -0.6568 -1.1450  0.8633
 1855SOL    HW2 5622   2.578   1.897   0.751 -0.3029  0.0072  0.6725
 1856SOL     OW 5623   3.237   3.380   0.547  0.0411  0.0667 -0.7534
 1856SOL    HW1 5624   3.168   3.415   0.491  0.9440 -0.0610 -2.0006
 1856SOL    HW2 5625   3.281   3.315   0.492 -0.1079 -1.3133  0.7086
 1857SOL     OW 5626   0.087   0.860   4.330  0.2579 -0.3987 -0.5658
 1857SOL    HW1 5627   0.166   0.838   4.379  1.6199  1.2297 -1.8894
 1857SOL    HW2 5628   0.102   0.823   4.243 -0.0679  0.5800 -1.0487
 1858SOL     OW 5629   3.253   4.258   0.635 -0.1647  0.3699  0.6317
 1858SOL    HW1 5630   3.187   4.210   0.585 -0.1875  1.8230 -0.8423
 1858SOL    HW2 5631   3.335   4.211   0.617  0.0118  1.4049 -1.7188
 1859SOL     OW 5632   0.798   3.572   1.273  0.0223  0.4614 -0.0026
 1859SOL    HW1 5633   0.808   3.661   1.239 -0.6951  0.7027  0.4119
 1859SOL    HW2 5634   0.704   3.560   1.283  0.1183 -0.3200  0.0243
 1860SOL     OW 5635   2.321   4.468   4.140 -0.0098  0.3739  0.3198
 1860SOL    HW1 5636   2.303   4.376   4.156 -0.4267  0.6215  1.3548
 1860SOL    HW2 5637   2.235   4.510   4.144  0.1134  0.7403 -0.6661
 1861SOL     OW 5638   2.904   1.561   0.614  0.0001  0.4824  0.1989
 1861SOL    HW1 5639   2.854   1.482   0.592  0.2979  0.6957 -1.3482
 1861SOL    HW2 5640   2.871   1.628   0.555  1.3508  0.9052 -0.1224
 1862SOL     OW 5641   3.709   0.775   2.736  0.2146 -0.5575 -0.4533
 1862SOL    HW1 5642   3.718   0.690   2.780  0.4429 -0.7594 -0.8800
 1862SOL    HW2 5643   3.800   0.803   2.720  0.1609  0.1359  0.3717
 1863SOL     OW 5644   1.680   4.631   3.977 -0.3330  0.7947  0.2739
 1863SOL    HW1 5645   1.656   4.547   3.936  0.2868  1.3225 -1.2378
 1863SOL    HW2 5646   1.684   4.693   3.904 -0.0410  1.9889  1.2709
 1864SOL     OW 5647   1.636   1.740   0.365 -0.0257 -0.4142 -0.6668
 1864SOL    HW1 5648   1.598   1.819   0.325 -0.7586 -0.8792 -0.9226
 1864SOL    HW2 5649   1.570   1.672   0.349  0.5015 -1.0273 -0.2603
 1865SOL     OW 5650   0.907   2.683   2.353 -0.1840  0.2285  0.1058
 1865SOL    HW1 5651   0.967   2.699   2.426  2.3032  1.3898 -2.0074
 1865SOL    HW2 5652   0.879   2.592   2.364  2.0770 -0.4017  1.1781
 1866SOL     OW 5653   2.505   2.400   4.369  0.2449 -0.4031  0.0368
 1866SOL    HW1 5654   2.501   2.451   4.450  0.4902 -0.9354  0.3946
 1866SOL    HW2 5655   2.426   2.346   4.371 -0.8148  1.0359 -1.0938
 1867SOL     OW 5656   0.202   1.148   1.351 -0.1973 -0.4462  0.1185
 1867SOL    HW1 5657   0.114   1.133   1.317 -1.1805  0.8085  1.9227
 1867SOL    HW2 5658   0.218   1.241   1.338  1.0544 -0.7416 -0.5741
 1868SOL     OW 5659   3.453   1.089   3.659 -0.2028  0.3072 -0.6171
 1868SOL    HW1 5660   3.361   1.095   3.632 -0.3933 -0.9745 -0.2885
 1868SOL    HW2 5661   3.477   0.998   3.645  0.8758  0.5125 -0.2123
 1869SOL     OW 5662   0.519   4.729   0.737  0.7734  0.7535 -0.0726
 1869SOL    HW1 5663   0.591   4.724   0.800  1.9521 -0.3320 -1.4107
 1869SOL    HW2 5664   0.483   4.640   0.735  0.7680  0.7669 -0.9240
 1870SOL     OW 5665   3.552   2.118   2.699  0.1322  0.0895 -0.2334
 1870SOL    HW1 5666   3.502   2.096   2.620 -0.6526  0.0780  0.2536
 1870SOL    HW2 5667   3.599   2.038   2.721 -0.7757 -0.3667  0.1158
 1871SOL     OW 5668   2.441   0.520   4.074  0.5871 -0.0717 -0.2892
 1871SOL    HW1 5669   2.451   0.486   3.985  0.8693  0.3739 -0.4290
 1871SOL    HW2 5670   2.530   0.538   4.103  0.5507 -0.8432  0.3379
 1872SOL     OW 5671   1.044   0.958   0.361  0.5342 -0.1539 -0.2962
 1872SOL    HW1 5672   1.064   0.880   0.309  2.1264  0.7523 -1.1001
 1872SOL    HW2 5673   1.107   1.024   0.332 -0.7080  1.4330  0.4126
 1873SOL     OW 5674   2.655   4.706   4.801 -0.7401 -0.4371  0.4046
 1873SOL    HW1 5675   2.667   4.793   4.840  0.1774 -1.4412  2.4876
 1873SOL    HW2 5676   2.573   4.674   4.838 -0.8982 -0.6251 -0.0951
 1874SOL     OW 5677   4.748   3.410   1.917  0.1754  0.2291  0.0064
 1874SOL    HW1 5678   4.780   3.359   1.991  1.2692  0.5185 -0.2467
 1874SOL    HW2 5679   4.782   3.498   1.932 -1.3847  0.8354  0.2500
 1875SOL     OW 5680   0.912   2.033   2.969  0.9835 -0.0048 -0.4755
 1875SOL    HW1 5681   0.922   2.053   3.062  1.6094 -0.3710 -0.4576
 1875SOL    HW2 5682   1.000   2.046   2.932  0.2175  2.8298 -1.5524
 1876SOL     OW 5683   4.018   1.841   4.542 -0.5416  0.3392  0.0690
 1876SOL    HW1 5684   4.038   1.911   4.480  3.0150 -2.3238 -2.1427
 1876SOL    HW2 5685   3.962   1.781   4.493 -0.7439 -0.0522  0.7627
 1877SOL     OW 5686   1.904   0.514   4.457  0.3607 -1.1388 -0.0548
 1877SOL    HW1 5687   1.953   0.544   4.381  1.3995 -1.5734  0.4286
 1877SOL    HW2 5688   1.946   0.558   4.531  0.0746 -1.5830  0.3728
 1878SOL     OW 5689   2.408   2.340   3.467 -0.1816 -0.2524  0.0560
 1878SOL    HW1 5690   2.439   2.399   3.398  0.3160 -0.0428  0.4601
 1878SOL    HW2 5691   2.333   2.385   3.505 -2.2447 -1.5535 -2.1388
 1879SOL     OW 5692   2.559   3.051   2.375 -0.1756 -0.4325 -0.3013
 1879SOL    HW1 5693   2.586   2.990   2.443  0.9646  0.0076 -0.3398
 1879SOL    HW2 5694   2.532   2.996   2.302 -1.4655 -0.9128  0.5007
 1880SOL     OW 5695   2.951   1.746   1.706  0.2109  0.7512  0.4290
 1880SOL    HW1 5696   2.973   1.835   1.735 -0.2332  0.7390  0.8152
 1880SOL    HW2 5697   3.009   1.730   1.632 -0.6881  1.9176 -0.5662
 1881SOL     OW 5698   4.761   0.946   1.426 -0.1969  0.2039  0.3686
 1881SOL    HW1 5699   4.667   0.929   1.437 -0.5760  1.5376 -0.5908
 1881SOL    HW2 5700   4.770   0.977   1.336  1.2467 -0.3076  0.3041
 1882SOL     OW 5701   3.162   2.981   4.316 -0.2114  0.1756 -0.3970
 1882SOL    HW1 5702   3.094   3.006   4.378 -0.4212 -0.3673 -0.4021
 1882SOL    HW2 5703   3.124   2.910   4.265 -0.1021  0.7274 -1.2697
 1883SOL     OW 5704   1.603   3.956   1.681 -0.3269 -0.0687  0.5704
 1883SOL    HW1 5705   1.549   3.879   1.662 -2.4457  1.2305  0.9752
 1883SOL    HW2 5706   1.592   4.013   1.605 -0.3834  0.6687  1.1193
 1884SOL     OW 5707   2.866   3.083   3.204  0.1645  0.1008 -0.1435
 1884SOL    HW1 5708   2.938   3.092   3.267  0.5166  0.0267 -0.5292
 1884SOL    HW2 5709   2.836   3.172   3.189  0.8432  0.2409 -0.7408
 1885SOL     OW 5710   2.014   4.600   4.791  0.5870  0.1109  0.0883
 1885SOL    HW1 5711   1.937   4.644   4.828  1.1263  1.6671 -0.5385
 1885SOL    HW2 5712   1.981   4.559   4.711 -0.1801 -1.7281  1.2776
 1886SOL     OW 5713   1.621   2.750   4.510  0.5142  0.5185 -0.4606
 1886SOL    HW1 5714   1.578   2.802   4.442  0.3661 -0.2082 -0.9292
 1886SOL    HW2 5715   1.684   2.810   4.550 -0.5623  1.4567 -0.1067
 1887SOL     OW 5716   3.965   2.825   0.241  0.0624  0.9018  0.0912
 1887SOL    HW1 5717   4.014   2.745   0.261 -2.1185 -0.6186 -0.2950
 1887SOL    HW2 5718   3.997   2.852   0.155  0.2518 -0.0064 -0.1331
 1888SOL     OW 5719   1.445   3.300   2.495  0.1868 -0.1073  0.2051
 1888SOL    HW1 5720   1.407   3.387   2.504  1.1749  0.2384  1.1393
 1888SOL    HW2 5721   1.516   3.311   2.432  1.1102  0.0405  1.2486
 1889SOL     OW 5722   3.630   2.503   0.092  0.0619 -0.5324  0.1412
 1889SOL    HW1 5723   3.610   2.467   0.006  0.5305 -0.4249 -0.0107
 1889SOL    HW2 5724   3.725   2.507   0.096  0.0578  1.7610 -0.3180
 1890SOL     OW 5725   0.492   1.269   3.402 -0.3633  0.0281  0.4282
 1890SOL    HW1 5726   0.469   1.343   3.458 -2.1592  0.6914 -1.0650
 1890SOL    HW2 5727   0.504   1.308   3.315 -0.0803 -1.2773 -0.1425
 1891SOL     OW 5728   2.596   2.473   0.119  0.3883 -0.8711  0.3524
 1891SOL    HW1 5729   2.518   2.462   0.173 -0.9945 -0.3647 -1.4690
 1891SOL    HW2 5730   2.669   2.458   0.180 -1.0539  0.3751  2.5336
 1892SOL     OW 5731   0.669   1.893   1.877  0.3760 -0.7663 -0.7006
 1892SOL    HW1 5732   0.590   1.856   1.918  0.0971 -1.0454 -1.4749
 1892SOL    HW2 5733   0.653   1.885   1.783  0.5644  0.8127 -0.8867
 1893SOL     OW 5734   3.996   2.653   2.952 -0.1691  0.0700 -0.1997
 1893SOL    HW1 5735   4.086   2.640   2.923 -0.2381  0.0581 -0.4072
 1893SOL    HW2 5736   3.970   2.568   2.989 -1.0196 -0.8087 -2.6159
 1894SOL     OW 5737   1.436   1.935   3.327  0.3979  0.1659 -0.3936
 1894SOL    HW1 5738   1.436   1.943   3.231  2.2997 -1.2460 -0.5654
 1894SOL    HW2 5739   1.344   1.920   3.349  0.0780 -0.8540 -2.1651
 1895SOL     OW 5740   4.409   1.812   2.942 -0.1752 -0.7692 -1.2866
 1895SOL    HW1 5741   4.355   1.737   2.918 -0.7343 -0.3738 -1.2661
 1895SOL    HW2 5742   4.499   1.780   2.932 -0.3801 -1.9245  0.1965
 1896SOL     OW 5743   1.144   0.229   3.771 -0.2659 -0.6543  0.0738
 1896SOL    HW1 5744   1.155   0.184   3.687 -0.8407  0.1622 -0.4425
 1896SOL    HW2 5745   1.230   0.221   3.813  0.3415 -0.1786 -1.0367
 1897SOL     OW 5746   3.593   0.325   4.323 -0.6692  0.3703 -0.3823
 1897SOL    HW1 5747   3.579   0.308   4.229 -0.7578 -1.5468 -0.0528
 1897SOL    HW2 5748   3.688   0.315   4.335 -0.8904 -1.5473  0.0849
 1898SOL     OW 5749   1.828   2.014   3.886  0.1714 -0.3979 -0.0085
 1898SOL    HW1 5750   1.783   2.052   3.810  0.5312  1.6237  0.7194
 1898SOL    HW2 5751   1.856   2.090   3.938 -0.0542 -1.7038  2.1609
 1899SOL     OW 5752   4.626   0.118   2.771  0.3342  0.3007 -0.5026
 1899SOL    HW1 5753   4.631   0.081   2.683  1.5060  0.9356 -0.7338
 1899SOL    HW2 5754   4.534   0.140   2.783 -0.3964 -2.4379 -0.4092
 1900SOL     OW 5755   3.502   2.409   2.469 -0.1522  0.2121 -0.3621
 1900SOL    HW1 5756   3.410   2.390   2.453 -0.2072 -0.3170  0.4902
 1900SOL    HW2 5757   3.504   2.503   2.489 -0.7889 -0.0998  1.3571
 1901SOL     OW 5758   1.814   0.177   2.847  0.1070  0.3144 -0.1308
 1901SOL    HW1 5759   1.903   0.205   2.871 -0.5023  3.1226 -0.7571
 1901SOL    HW2 5760   1.820   0.162   2.752  0.1557 -0.6160  0.0151
 1902SOL     OW 5761   2.864   0.095   0.915 -0.2897  0.1615  0.7052
 1902SOL    HW1 5762   2.861   0.042   0.835  0.1324  1.0773  0.0588
 1902SOL    HW2 5763   2.851   0.185   0.885  1.6197  0.7361  1.4154
 1903SOL     OW 5764   3.175   4.108   1.900  0.6444 -0.5125  0.0088
 1903SOL    HW1 5765   3.082   4.123   1.912  0.4930 -0.5153 -1.0520
 1903SOL    HW2 5766   3.197   4.037   1.960  0.3667  0.7256  1.6238
 1904SOL     OW 5767   2.639   3.969   1.445 -0.3262  0.1245  0.4027
 1904SOL    HW1 5768   2.568   4.023   1.410 -0.9601 -0.8694  0.1212
 1904SOL    HW2 5769   2.689   3.941   1.368  1.0350  1.6417  0.6527
 1905SOL     OW 5770   3.349   1.283   4.551  0.3264  1.3907  0.3732
 1905SOL    HW1 5771   3.326   1.238   4.632 -0.5360  0.1682 -0.5220
 1905SOL    HW2 5772   3.409   1.223   4.506 -0.1161  1.5374 -0.4225
 1906SOL     OW 5773   3.232   2.369   2.466  0.1373  0.1710 -0.0022
 1906SOL    HW1 5774   3.191   2.308   2.405  0.0362 -0.3183  0.5525
 1906SOL    HW2 5775   3.203   2.455   2.435 -2.0947 -0.1797  0.8883
 1907SOL     OW 5776   3.206   3.599   2.120  0.4853  0.0996 -1.1596
 1907SOL    HW1 5777   3.126   3.578   2.168  1.0071  0.2916 -0.1888
 1907SOL    HW2 5778   3.177   3.659   2.051 -0.3897 -0.7754 -1.5784
 1908SOL     OW 5779   3.343   3.521   2.702  0.1302 -0.6690 -0.1563
 1908SOL    HW1 5780   3.430   3.559   2.712 -0.9178  1.5887  1.1084
 1908SOL    HW2 5781   3.304   3.569   2.629 -0.6914 -0.2976  0.5064
 1909SOL     OW 5782   0.117   3.784   4.488 -0.2569 -0.0626 -0.6749
 1909SOL    HW1 5783   0.172   3.737   4.425 -0.8107 -0.1526 -1.1034
 1909SOL    HW2 5784   0.059   3.717   4.524  1.5417 -0.4911  1.6589
 1910SOL     OW 5785   1.454   3.145   2.722  0.0048  0.6117  0.0101
 1910SOL    HW1 5786   1.473   3.135   2.629  0.6085  1.2857  0.0457
 1910SOL    HW2 5787   1.445   3.240   2.734  1.6061  0.6970  0.9228
 1911SOL     OW 5788   0.762   1.924   0.909 -0.1284  0.2463 -0.8079
 1911SOL    HW1 5789   0.697   1.887   0.849  0.1814 -0.1505 -0.9031
 1911SOL    HW2 5790   0.803   1.994   0.858 -0.1107  0.1418 -0.9393
 1912SOL     OW 5791   1.079   2.834   3.082 -0.3424  0.6791 -0.1525
 1912SOL    HW1 5792   1.065   2.789   2.999  1.1799 -0.0928 -0.0169
 1912SOL    HW2 5793   1.088   2.764   3.146 -0.7354  1.2541  0.5518
 1913SOL     OW 5794   4.391   2.116   1.887  0.1985 -0.6426 -0.4880
 1913SOL    HW1 5795   4.341   2.072   1.955  1.9554 -0.0832  1.2622
 1913SOL    HW2 5796   4.340   2.194   1.866 -0.0830 -0.4963  0.6657
 1914SOL     OW 5797   1.945   2.114   4.390  0.0866 -0.2003  0.0294
 1914SOL    HW1 5798   1.966   2.120   4.484 -0.2519 -1.7383  0.2392
 1914SOL    HW2 5799   1.849   2.111   4.388 -0.0805  2.7850 -0.6231
 1915SOL     OW 5800   2.066   2.978   3.715  0.3384 -0.0032  0.2665
 1915SOL    HW1 5801   2.025   3.064   3.703  0.7039  0.1985  0.4078
 1915SOL    HW2 5802   2.017   2.938   3.786  2.1652  1.4335  2.5019
 1916SOL     OW 5803   0.400   3.476   3.708  0.0573  0.0233 -0.1704
 1916SOL    HW1 5804   0.330   3.469   3.773  0.8333 -0.9126  0.6118
 1916SOL    HW2 5805   0.467   3.416   3.741  0.4999 -0.4123 -1.8071
 1917SOL     OW 5806   0.898   1.807   4.723 -0.2829  0.3306  0.4841
 1917SOL    HW1 5807   0.895   1.758   4.805  0.5284  1.4585  1.2212
 1917SOL    HW2 5808   0.929   1.894   4.748  2.2225  0.0745 -1.2715
 1918SOL     OW 5809   4.873   2.667   4.817 -0.0439 -0.2609 -0.4887
 1918SOL    HW1 5810   4.899   2.584   4.856  1.0509 -0.7200 -2.1241
 1918SOL    HW2 5811   4.850   2.646   4.727 -3.0835  0.6758 -0.0646
 1919SOL     OW 5812   2.962   1.122   1.727  0.4149 -0.0106 -0.7825
 1919SOL    HW1 5813   2.981   1.214   1.745 -1.5520  0.0929  1.2141
 1919SOL    HW2 5814   3.012   1.102   1.648 -0.4697  3.2958 -2.3763
 1920SOL     OW 5815   1.197   4.407   1.825  0.5880 -0.3938  0.1499
 1920SOL    HW1 5816   1.219   4.317   1.848 -0.1234 -0.9668 -1.3193
 1920SOL    HW2 5817   1.275   4.457   1.847  1.4569 -1.5616 -0.1859
 1921SOL     OW 5818   1.265   4.450   1.577  0.2591 -0.0760  0.9080
 1921SOL    HW1 5819   1.231   4.434   1.665  0.4443 -0.4376  0.9155
 1921SOL    HW2 5820   1.236   4.539   1.556  0.4663  0.1273  1.4553
 1922SOL     OW 5821   4.081   1.774   2.763 -0.3541  0.0926 -0.5290
 1922SOL    HW1 5822   4.024   1.845   2.734 -1.3358  0.5278  2.1572
 1922SOL    HW2 5823   4.078   1.778   2.858  1.9320 -1.7207 -0.2773
 1923SOL     OW 5824   0.098   0.375   3.542  0.0582 -0.4024 -0.1484
 1923SOL    HW1 5825   0.179   0.331   3.568  0.9181  0.5767 -1.0892
 1923SOL    HW2 5826   0.102   0.379   3.447 -0.6796  0.4474 -0.1549
 1924SOL     OW 5827   1.604   0.273   1.152 -0.2088 -0.5412  0.4418
 1924SOL    HW1 5828   1.666   0.260   1.080 -1.0322 -0.0337 -0.3809
 1924SOL    HW2 5829   1.648   0.236   1.229  1.9744  1.5650  0.3263
 1925SOL     OW 5830   4.434   2.605   1.582  0.6003  0.1946 -0.2037
 1925SOL    HW1 5831   4.356   2.598   1.526  0.5337 -0.1583 -0.0689
 1925SOL    HW2 5832   4.439   2.698   1.604 -0.8330 -0.0293  1.2681
 1926SOL     OW 5833   0.404   3.758   0.633  0.0487 -0.1494  0.5187
 1926SOL    HW1 5834   0.390   3.849   0.658  0.7994 -0.4018  1.9363
 1926SOL    HW2 5835   0.332   3.739   0.573 -1.4390  0.7160  1.9542
 1927SOL     OW 5836   4.539   0.713   1.127  0.1445  0.5750 -0.2382
 1927SOL    HW1 5837   4.506   0.648   1.066  1.5028  1.5931 -2.1688
 1927SOL    HW2 5838   4.492   0.696   1.209  0.1946 -2.5588 -0.7467
 1928SOL     OW 5839   3.862   2.329   1.664 -0.0210 -0.6976 -0.3376
 1928SOL    HW1 5840   3.808   2.322   1.743 -0.1863 -0.3225 -0.4156
 1928SOL    HW2 5841   3.864   2.423   1.645 -2.3065 -0.9538 -2.3625
 1929SOL     OW 5842   2.855   0.616   0.470  0.0391 -0.0405  1.0226
 1929SOL    HW1 5843   2.830   0.529   0.437  2.9174 -1.4897  2.2666
 1929SOL    HW2 5844   2.782   0.643   0.525 -1.8417 -0.6629 -1.0138
 1930SOL     OW 5845   4.691   0.746   4.776  0.3167  0.1482  0.5331
 1930SOL    HW1 5846   4.735   0.766   4.859  0.2171  1.8359  0.2202
 1930SOL    HW2 5847   4.603   0.720   4.801  1.1640 -2.4374  1.1166
 1931SOL     OW 5848   2.330   2.824   3.773 -0.5125 -0.3337  0.1380
 1931SOL    HW1 5849   2.236   2.842   3.762 -0.7683  0.8122  3.2056
 1931SOL    HW2 5850   2.334   2.760   3.844  1.0497  0.1085  0.4786
 1932SOL     OW 5851   2.849   3.399   0.890 -0.2888  0.1865  0.0145
 1932SOL    HW1 5852   2.923   3.422   0.835 -0.4165  0.6462  0.0296
 1932SOL    HW2 5853   2.772   3.432   0.842 -0.3541  1.1305  0.7368
 1933SOL     OW 5854   4.393   4.941   4.661 -0.6689  0.0477 -0.4478
 1933SOL    HW1 5855   4.418   5.033   4.666  1.2105 -0.3977 -0.9903
 1933SOL    HW2 5856   4.408   4.916   4.570 -0.9189 -0.8661 -0.2544
 1934SOL     OW 5857   4.774   4.910   0.997  0.1692  0.2521  0.6689
 1934SOL    HW1 5858   4.752   4.988   0.946  2.0430  0.0275 -0.5733
 1934SOL    HW2 5859   4.761   4.837   0.937 -3.1632 -0.6600  2.3051
 1935SOL     OW 5860   2.246   2.538   2.006  0.0767  0.2480 -0.1116
 1935SOL    HW1 5861   2.311   2.479   2.043 -0.2344  0.2258  0.3995
 1935SOL    HW2 5862   2.164   2.489   2.006  0.5551 -0.8159 -3.4441
 1936SOL     OW 5863   1.807   0.892   2.634  0.0728 -0.5718 -0.5038
 1936SOL    HW1 5864   1.713   0.902   2.622  0.3087  0.2728 -1.7619
 1936SOL    HW2 5865   1.817   0.870   2.727 -1.1832  2.0698  0.3586
 1937SOL     OW 5866   3.979   1.604   3.138 -0.2263  0.3259 -0.2363
 1937SOL    HW1 5867   3.967   1.509   3.146  0.2165  0.2244 -0.7130
 1937SOL    HW2 5868   3.976   1.636   3.228 -0.1245 -0.1732 -0.0510
 1938SOL     OW 5869   4.906   2.096   1.521  0.3282 -0.6058  0.1852
 1938SOL    HW1 5870   5.000   2.078   1.526  0.4406  0.1227  0.7668
 1938SOL    HW2 5871   4.893   2.174   1.575 -0.6276 -0.7612  0.2000
 1939SOL     OW 5872   4.540   4.028   1.409 -0.8793 -0.2777 -0.2448
 1939SOL    HW1 5873   4.461   4.078   1.427 -0.0788  1.0698 -0.3061
 1939SOL    HW2 5874   4.509   3.948   1.367 -2.1295  0.8030 -1.4797
 1940SOL     OW 5875   2.913   4.406   0.791  1.0226  0.0704  0.2544
 1940SOL    HW1 5876   2.964   4.487   0.801  0.9421  0.2736 -0.7819
 1940SOL    HW2 5877   2.862   4.421   0.712 -0.6135 -0.1617  1.2389
 1941SOL     OW 5878   3.129   2.117   1.776  0.5273 -0.1506  0.6715
 1941SOL    HW1 5879   3.198   2.124   1.842  0.4347  1.1340  0.6646
 1941SOL    HW2 5880   3.114   2.208   1.749  1.7982 -0.7382 -2.4181
 1942SOL     OW 5881   3.043   4.447   1.867  0.3658  0.0664 -0.1091
 1942SOL    HW1 5882   3.002   4.361   1.876 -0.4659  0.6538  2.2171
 1942SOL    HW2 5883   2.985   4.495   1.808 -0.2381 -0.3164  0.1683
 1943SOL     OW 5884   3.346   3.916   1.222 -0.3988 -0.1836 -0.3132
 1943SOL    HW1 5885   3.371   3.935   1.131 -0.1252 -0.8009 -0.3699
 1943SOL    HW2 5886   3.297   3.994   1.250 -1.3083 -0.3797 -1.2981
 1944SOL     OW 5887   4.045   3.941   2.102 -0.0738 -0.2359  0.1463
 1944SOL    HW1 5888   4.059   3.941   2.196 -0.1183 -0.5545  0.1515
 1944SOL    HW2 5889   3.951   3.949   2.091 -0.0522  0.0003  0.1260
 1945SOL     OW 5890   3.745   1.167   0.442 -0.0366  0.1143  0.3251
 1945SOL    HW1 5891   3.741   1.151   0.537  2.4759 -0.3883  0.4275
 1945SOL    HW2 5892   3.726   1.082   0.403 -1.1324  0.3346  0.3529
 1946SOL     OW 5893   4.361   2.419   3.153  0.7454 -0.5905  0.2835
 1946SOL    HW1 5894   4.422   2.423   3.228 -0.8412 -2.5117  1.8089
 1946SOL    HW2 5895   4.283   2.376   3.189 -0.6079 -0.3516 -2.1922
 1947SOL     OW 5896   3.946   1.884   1.828 -0.0136  0.6874 -0.0756
 1947SOL    HW1 5897   3.887   1.938   1.776 -0.0440 -1.0605 -1.9694
 1947SOL    HW2 5898   3.889   1.838   1.890 -0.2290  1.3135  0.1947
 1948SOL     OW 5899   0.732   3.878   0.480 -0.1638  0.5913 -0.3347
 1948SOL    HW1 5900   0.824   3.867   0.457  0.0749  0.4688  0.6269
 1948SOL    HW2 5901   0.684   3.848   0.403  0.5922 -0.1668 -0.5298
 1949SOL     OW 5902   3.038   3.811   3.327 -0.5470 -0.2604 -0.2429
 1949SOL    HW1 5903   2.972   3.802   3.258 -1.5720 -1.0732  0.8218
 1949SOL    HW2 5904   3.059   3.721   3.352 -0.2224  0.0260  0.5463
 1950SOL     OW 5905   4.907   4.891   2.531 -0.8696  0.0306 -0.2776
 1950SOL    HW1 5906   4.835   4.857   2.477 -1.3714 -0.4928  0.6876
 1950SOL    HW2 5907   4.941   4.814   2.577  2.2142 -0.2816 -2.7768
 1951SOL     OW 5908   4.964   1.823   4.928  0.2852  0.1840 -0.1467
 1951SOL    HW1 5909   4.931   1.746   4.881  0.0905 -0.7488  1.4507
 1951SOL    HW2 5910   4.976   1.889   4.859 -1.6392 -0.5353 -1.2576
 1952SOL     OW 5911   2.375   4.622   3.480  0.1063 -0.2178 -0.3261
 1952SOL    HW1 5912   2.365   4.527   3.478  0.0883 -0.2065 -1.0817
 1952SOL    HW2 5913   2.338   4.651   3.396  0.2086  0.4449 -0.1440
 1953SOL     OW 5914   1.435   1.872   1.108  0.6298  0.3750  0.5403
 1953SOL    HW1 5915   1.424   1.951   1.055 -1.2044 -0.7388 -0.8712
 1953SOL    HW2 5916   1.348   1.855   1.144  1.5671  0.4075  2.9893
 1954SOL     OW 5917   4.425   2.157   4.991  0.1399  0.0821  0.0749
 1954SOL    HW1 5918   4.472   2.110   4.921 -0.7204 -2.1835  0.9419
 1954SOL    HW2 5919   4.352   2.200   4.947  0.6458  0.1987 -0.6671
 1955SOL     OW 5920   0.424   4.342   4.371  0.1253 -0.1186 -0.0553
 1955SOL    HW1 5921   0.363   4.401   4.327  0.0805 -1.3675 -1.7339
 1955SOL    HW2 5922   0.410   4.257   4.330  0.8154 -1.1322  1.6966
 1956SOL     OW 5923   2.638   2.178   4.978 -0.0455 -0.4171 -0.0169
 1956SOL    HW1 5924   2.561   2.145   4.932 -0.3876  0.4979 -0.1013
 1956SOL    HW2 5925   2.697   2.207   4.909  0.4587 -1.2503  0.0400
 1957SOL     OW 5926   3.244   4.897   2.452 -0.3027 -0.3015 -0.7453
 1957SOL    HW1 5927   3.239   4.803   2.438 -2.1143 -0.1265 -1.4519
 1957SOL    HW2 5928   3.156   4.923   2.479  0.7190  0.8653  1.8148
 1958SOL     OW 5929   2.981   0.846   1.820  0.0373 -0.3673  0.5080
 1958SOL    HW1 5930   2.907   0.907   1.813 -1.0355 -1.7680 -1.0394
 1958SOL    HW2 5931   3.057   0.901   1.802 -0.8064  0.7071  0.0511
 1959SOL     OW 5932   1.813   2.952   2.859  0.3569 -0.7389  0.6173
 1959SOL    HW1 5933   1.838   3.044   2.870  1.3096 -1.0043  0.8075
 1959SOL    HW2 5934   1.866   2.906   2.924  1.0194 -1.5927 -0.4949
 1960SOL     OW 5935   3.637   0.220   2.363 -0.3028 -0.0905  0.5321
 1960SOL    HW1 5936   3.545   0.197   2.377 -0.3480 -0.3957 -0.2149
 1960SOL    HW2 5937   3.683   0.136   2.365 -0.0852  0.0286  0.5386
 1961SOL     OW 5938   3.727   0.963   3.832 -0.0230 -0.3997 -0.4397
 1961SOL    HW1 5939   3.717   1.051   3.866  3.2182  0.5312 -1.5625
 1961SOL    HW2 5940   3.811   0.932   3.866 -0.3523 -2.4569 -1.2863
 1962SOL     OW 5941   4.553   3.647   1.128 -0.2541  0.0621 -0.4320
 1962SOL    HW1 5942   4.624   3.652   1.064  1.2623  0.6536  1.2320
 1962SOL    HW2 5943   4.498   3.575   1.096 -1.4068  2.3211 -4.1453
 1963SOL     OW 5944   4.806   3.601   3.120 -0.4824  0.4484 -0.0829
 1963SOL    HW1 5945   4.754   3.567   3.192  1.7349 -0.6012  1.1471
 1963SOL    HW2 5946   4.758   3.577   3.041 -2.8225  1.3431  0.9867
 1964SOL     OW 5947   4.647   1.952   2.615 -0.1366  0.6043 -0.0279
 1964SOL    HW1 5948   4.598   2.027   2.580  0.1184  0.8536  0.1364
 1964SOL    HW2 5949   4.738   1.968   2.586 -0.0145  0.5574  0.3300
 1965SOL     OW 5950   0.963   3.262   3.497 -0.8707 -0.1733 -0.1593
 1965SOL    HW1 5951   1.054   3.275   3.526 -0.9682  1.1511 -0.3631
 1965SOL    HW2 5952   0.919   3.223   3.573 -0.7014  1.5639  0.8931
 1966SOL     OW 5953   2.304   2.792   1.939  0.7164 -0.4594 -0.6495
 1966SOL    HW1 5954   2.222   2.842   1.945  0.3529 -1.1115 -0.0183
 1966SOL    HW2 5955   2.277   2.702   1.956  1.2520 -0.9936 -2.3811
 1967SOL     OW 5956   1.609   1.149   3.213  0.1719 -0.4859  0.3414
 1967SOL    HW1 5957   1.662   1.191   3.145 -2.4094 -0.3356 -1.7231
 1967SOL    HW2 5958   1.526   1.129   3.170 -1.1135 -1.6498  3.1227
 1968SOL     OW 5959   0.368   1.904   3.697 -0.5962  0.3620 -0.0057
 1968SOL    HW1 5960   0.273   1.916   3.704 -0.3310  1.9668  3.1969
 1968SOL    HW2 5961   0.399   1.985   3.656 -0.5243  0.3996  0.1226
 1969SOL     OW 5962   3.511   4.068   3.234 -0.0536 -0.5270  0.5016
 1969SOL    HW1 5963   3.552   4.147   3.269  0.1187  0.3141 -1.5132
 1969SOL    HW2 5964   3.560   3.996   3.274  1.4144  0.4191  0.4509
 1970SOL     OW 5965   2.692   3.556   3.212  0.3093  0.2534 -0.1308
 1970SOL    HW1 5966   2.640   3.565   3.292 -3.1130  0.0977 -2.1055
 1970SOL    HW2 5967   2.721   3.645   3.192  0.5904  0.3998  0.8860
 1971SOL     OW 5968   3.710   4.452   0.221 -0.5300 -0.0661 -0.2092
 1971SOL    HW1 5969   3.752   4.508   0.155  2.3239 -1.4741  0.2761
 1971SOL    HW2 5970   3.689   4.372   0.174 -0.7398 -0.1619  0.0481
 1972SOL     OW 5971   0.760   1.151   4.539 -0.1221 -0.1171  0.0053
 1972SOL    HW1 5972   0.734   1.065   4.506 -0.2606 -0.1661  0.2359
 1972SOL    HW2 5973   0.851   1.162   4.511 -0.1456 -0.2846 -0.1330
 1973SOL     OW 5974   2.896   0.769   1.413 -0.1612 -0.7579 -0.2949
 1973SOL    HW1 5975   2.869   0.683   1.381 -1.4004  0.1184 -1.7500
 1973SOL    HW2 5976   2.846   0.781   1.494 -1.2824 -0.7477 -0.9593
 1974SOL     OW 5977   1.104   0.199   4.090  0.1499  0.2560  0.3386
 1974SOL    HW1 5978   1.113   0.293   4.075  0.3139 -0.0352 -1.6674
 1974SOL    HW2 5979   1.100   0.161   4.002  1.6944 -1.7593  1.0528
 1975SOL     OW 5980   0.987   4.179   4.138 -0.3417  0.0665  0.4994
 1975SOL    HW1 5981   0.954   4.203   4.052  2.4396  0.6666 -0.5283
 1975SOL    HW2 5982   0.983   4.259   4.189  0.1170  0.3200  0.1518
 1976SOL     OW 5983   4.052   0.146   4.611 -0.4469  0.1428 -0.4311
 1976SOL    HW1 5984   4.001   0.084   4.560  0.0964  0.4526 -1.3830
 1976SOL    HW2 5985   4.111   0.186   4.548  0.8428 -0.0657  0.6113
 1977SOL     OW 5986   1.491   1.246   1.082 -0.1929 -0.2116 -0.6904
 1977SOL    HW1 5987   1.480   1.326   1.133 -0.9888 -0.6058 -0.2253
 1977SOL    HW2 5988   1.473   1.175   1.143  1.9522 -0.8321 -0.7043
 1978SOL     OW 5989   1.582   0.157   4.957  0.2875  0.3462  0.8079
 1978SOL    HW1 5990   1.532   0.238   4.966 -4.3574 -2.1454  0.4520
 1978SOL    HW2 5991   1.596   0.148   4.862 -1.5817 -0.4358  0.5705
 1979SOL     OW 5992   4.700   4.612   3.840 -0.6522  0.1672  0.1717
 1979SOL    HW1 5993   4.776   4.655   3.880 -0.7374 -0.2573  0.8091
 1979SOL    HW2 5994   4.688   4.533   3.892 -0.1346 -0.9543 -1.3277
 1980SOL     OW 5995   1.332   2.649   1.527  0.2551  0.4560  0.1325
 1980SOL    HW1 5996   1.262   2.639   1.462  0.5721 -0.3697 -0.0980
 1980SOL    HW2 5997   1.384   2.569   1.518 -0.9591 -0.7790  2.9444
 1981SOL     OW 5998   2.639   0.519   1.763  0.2983  0.5618  0.0882
 1981SOL    HW1 5999   2.580   0.458   1.807  1.3647 -1.1586 -0.7916
 1981SOL    HW2 6000   2.716   0.524   1.820  0.2827  0.9898  0.0790
 1982SOL     OW 6001   4.410   2.673   2.383 -0.1461  0.7337  0.4138
 1982SOL    HW1 6002   4.352   2.599   2.398 -0.6499  0.6563 -1.6464
 1982SOL    HW2 6003   4.496   2.634   2.370 -0.5253  0.4091 -1.3219
 1983SOL     OW 6004   0.639   4.514   0.139  0.2402 -0.4707  0.2807
 1983SOL    HW1 6005   0.552   4.516   0.099  0.3721 -2.0462 -0.1636
 1983SOL    HW2 6006   0.697   4.483   0.069  1.1137  0.3136  0.6484
 1984SOL     OW 6007   4.704   2.531   1.521  0.2960  0.2778  0.1126
 1984SOL    HW1 6008   4.716   2.601   1.457  1.1801  0.2082  0.1926
 1984SOL    HW2 6009   4.609   2.528   1.536 -0.0144 -0.1439 -1.7011
 1985SOL     OW 6010   2.085   0.555   2.809  0.1532 -0.1807 -0.0393
 1985SOL    HW1 6011   2.119   0.644   2.813 -1.6215  0.5268  0.2174
 1985SOL    HW2 6012   2.143   0.510   2.747  1.3119  1.0135  0.1269
 1986SOL     OW 6013   4.243   0.205   1.063 -0.4579 -0.5898  0.1380
 1986SOL    HW1 6014   4.265   0.113   1.083  1.1123  0.2367  2.7353
 1986SOL    HW2 6015   4.320   0.238   1.017 -0.7625 -0.3820 -0.2281
 1987SOL     OW 6016   3.117   0.456   4.493 -0.3279 -0.8127  0.3745
 1987SOL    HW1 6017   3.188   0.460   4.429  0.1640  0.3402  0.9573
 1987SOL    HW2 6018   3.074   0.541   4.486 -1.2840 -1.2762  0.4527
 1988SOL     OW 6019   0.207   3.070   1.788 -0.4495 -0.6187 -0.3859
 1988SOL    HW1 6020   0.286   3.122   1.799 -2.1846  2.8825 -2.7983
 1988SOL    HW2 6021   0.170   3.065   1.876  1.5589 -0.8864  0.4927
 1989SOL     OW 6022   3.425   1.753   0.782 -0.1552  0.7580 -0.2080
 1989SOL    HW1 6023   3.471   1.815   0.725 -0.6954  1.4269  0.0697
 1989SOL    HW2 6024   3.377   1.808   0.844  0.3228  0.0479  0.8265
 1990SOL     OW 6025   0.077   1.034   2.066  0.1522  0.3411 -0.1810
 1990SOL    HW1 6026   0.103   1.119   2.031  1.2588 -0.4245 -1.3145
 1990SOL    HW2 6027   0.031   0.990   1.994 -1.2699  0.3234  0.7023
 1991SOL     OW 6028   3.695   0.087   0.526 -0.6724  0.3534 -0.6682
 1991SOL    HW1 6029   3.702   0.066   0.619  0.5220 -3.2790 -1.4323
 1991SOL    HW2 6030   3.773   0.141   0.508 -0.3469  0.1977  0.2175
 1992SOL     OW 6031   0.256   0.671   4.454  0.3878  0.5746  0.0252
 1992SOL    HW1 6032   0.286   0.618   4.380  2.0666  1.1650  0.2259
 1992SOL    HW2 6033   0.184   0.622   4.492  0.9738 -0.8505 -0.6515
 1993SOL     OW 6034   3.970   0.923   0.103  0.4028  0.1241  0.0152
 1993SOL    HW1 6035   4.003   0.842   0.066  2.3166  0.5061  0.7513
 1993SOL    HW2 6036   3.967   0.984   0.029 -0.8718 -0.5292 -0.5031
 1994SOL     OW 6037   1.047   2.890   0.322 -0.2206  0.1002 -0.9773
 1994SOL    HW1 6038   0.988   2.817   0.340  0.9378 -0.9865 -1.4134
 1994SOL    HW2 6039   1.085   2.911   0.407 -1.2344  0.8337 -0.6857
 1995SOL     OW 6040   1.625   2.178   2.618  0.2784  0.2156 -0.1915
 1995SOL    HW1 6041   1.537   2.164   2.652  0.9285 -0.0005  1.4816
 1995SOL    HW2 6042   1.683   2.140   2.684  1.6470  0.6054 -1.1214
 1996SOL     OW 6043   4.675   2.325   4.876  0.2479 -0.2212 -0.0101
 1996SOL    HW1 6044   4.715   2.333   4.790 -0.5099 -0.1744 -0.3687
 1996SOL    HW2 6045   4.729   2.260   4.922 -0.8521 -2.2752 -1.4467
 1997SOL     OW 6046   3.450   1.016   4.086  0.2400 -0.2343 -0.1609
 1997SOL    HW1 6047   3.484   1.075   4.019 -0.8394 -0.3208 -0.8059
 1997SOL    HW2 6048   3.468   0.929   4.052  0.1894 -0.2782 -0.0742
 1998SOL     OW 6049   0.585   0.088   3.252 -0.7145  0.5113 -0.0546
 1998SOL    HW1 6050   0.494   0.091   3.225 -0.8586  0.6472  0.4393
 1998SOL    HW2 6051   0.582   0.071   3.346 -0.2615  1.5116  0.1526
 1999SOL     OW 6052   1.655   4.489   4.365 -0.3197  0.0011  0.0076
 1999SOL    HW1 6053   1.638   4.433   4.288 -0.2484  0.3230 -0.2451
 1999SOL    HW2 6054   1.709   4.560   4.331 -0.4643  0.2607  0.3131
 2000SOL     OW 6055   4.726   4.155   0.133 -0.0799 -0.3947 -0.0096
 2000SOL    HW1 6056   4.719   4.202   0.050 -1.6217  0.0486  0.3395
 2000SOL    HW2 6057   4.777   4.213   0.190 -0.9280  0.3193  0.0372
 2001SOL     OW 6058   2.650   1.697   3.311 -0.0734 -0.1346  0.0367
 2001SOL    HW1 6059   2.577   1.680   3.252  1.1971  0.1269 -1.6888
 2001SOL    HW2 6060   2.694   1.612   3.320 -1.4151 -0.6577  2.3313
 2002SOL     OW 6061   0.269   1.417   2.372  0.1819  0.6904 -0.0021
 2002SOL    HW1 6062   0.332   1.356   2.412 -0.0477  2.0268  2.5861
 2002SOL    HW2 6063   0.189   1.366   2.364  0.3225  0.2747  1.0198
 2003SOL     OW 6064   1.844   4.602   2.275  0.3939 -0.5019 -0.0765
 2003SOL    HW1 6065   1.822   4.609   2.368  1.6096 -1.8460  0.3383
 2003SOL    HW2 6066   1.888   4.685   2.255 -1.0129  0.3458  0.1826
 2004SOL     OW 6067   3.772   2.929   4.704 -0.8741  0.0387  0.8369
 2004SOL    HW1 6068   3.780   2.849   4.651  0.5075 -0.3513  1.5863
 2004SOL    HW2 6069   3.863   2.953   4.725 -1.3294  1.0750  1.7119
 2005SOL     OW 6070   0.337   3.919   4.583  0.2959 -0.4346 -0.1485
 2005SOL    HW1 6071   0.303   4.006   4.560  1.2098 -0.0261 -0.0029
 2005SOL    HW2 6072   0.266   3.859   4.561 -0.8326  0.4607  0.9165
 2006SOL     OW 6073   0.252   3.376   2.523 -0.2201  0.1203 -0.0556
 2006SOL    HW1 6074   0.217   3.398   2.609 -0.5938 -0.5420 -0.0344
 2006SOL    HW2 6075   0.188   3.316   2.485  0.1137  0.1327 -0.6548
 2007SOL     OW 6076   3.102   2.891   2.926 -0.1153  0.3575  0.0601
 2007SOL    HW1 6077   3.197   2.906   2.927 -0.0461  0.0044 -0.5196
 2007SOL    HW2 6078   3.078   2.879   3.018  0.6226 -0.8925  0.1022
 2008SOL     OW 6079   1.311   3.547   2.547 -0.0686 -0.0508  0.3217
 2008SOL    HW1 6080   1.357   3.590   2.619  0.3623 -1.4670  0.9423
 2008SOL    HW2 6081   1.252   3.485   2.590 -0.9934  0.2192 -0.5229
 2009SOL     OW 6082   4.791   2.677   3.994  0.2602  0.0694 -0.0490
 2009SOL    HW1 6083   4.776   2.727   3.914  0.4930 -2.2251 -1.6203
 2009SOL    HW2 6084   4.704   2.666   4.032 -0.0203  0.0657 -0.6784
 2010SOL     OW 6085   3.413   3.911   4.951  0.1720 -0.4214  0.2606
 2010SOL    HW1 6086   3.488   3.896   4.893 -0.3283  0.9850 -0.8170
 2010SOL    HW2 6087   3.368   3.987   4.912 -1.3612 -0.7468  1.3288
 2011SOL     OW 6088   2.559   4.357   0.293 -0.3460 -0.1271  0.3700
 2011SOL    HW1 6089   2.638   4.396   0.256  0.1307 -0.5709  0.8893
 2011SOL    HW2 6090   2.506   4.431   0.320 -0.1756  0.1777 -0.1287
 2012SOL     OW 6091   0.695   3.635   3.479  0.2700  0.4984  0.0728
 2012SOL    HW1 6092   0.761   3.703   3.466 -0.5972  1.0228 -1.9553
 2012SOL    HW2 6093   0.649   3.661   3.559  1.0339  1.3805  0.2333
 2013SOL     OW 6094   2.319   1.674   2.488 -0.2700  0.0467 -0.2296
 2013SOL    HW1 6095   2.312   1.603   2.424 -0.2275  1.2530 -1.6316
 2013SOL    HW2 6096   2.334   1.630   2.571 -2.2944 -1.7000 -0.6849
 2014SOL     OW 6097   3.086   3.138   0.694 -0.5125 -0.7177  0.5003
 2014SOL    HW1 6098   3.149   3.203   0.727 -0.5794 -0.5425  0.2870
 2014SOL    HW2 6099   3.018   3.191   0.651  0.7199 -1.0130 -1.9727
 2015SOL     OW 6100   3.134   2.414   0.468  0.3548  0.0749  0.5437
 2015SOL    HW1 6101   3.125   2.503   0.500 -0.7236  0.5275 -0.9121
 2015SOL    HW2 6102   3.045   2.378   0.472  0.8412 -1.0938  1.4999
 2016SOL     OW 6103   4.327   0.542   3.005  0.1449  0.4162 -0.4487
 2016SOL    HW1 6104   4.256   0.483   2.980 -0.4470  1.3845 -1.1526
 2016SOL    HW2 6105   4.370   0.564   2.922 -1.2795  2.9627 -0.6405
 2017SOL     OW 6106   2.117   0.916   2.283 -0.0630 -0.3522  0.1444
 2017SOL    HW1 6107   2.139   0.884   2.370  0.3971 -1.6623 -0.4292
 2017SOL    HW2 6108   2.153   1.004   2.280 -0.7952  0.0273  1.5494
 2018SOL     OW 6109   2.367   0.783   2.095  0.4794 -0.0624  0.4751
 2018SOL    HW1 6110   2.417   0.785   2.013  0.0443  0.8829  0.2169
 2018SOL    HW2 6111   2.350   0.875   2.114 -0.7236 -0.3461  0.8284
 2019SOL     OW 6112   3.632   3.216   2.691 -0.6377 -0.0785 -0.3948
 2019SOL    HW1 6113   3.575   3.213   2.768 -0.4019  0.2069 -0.2063
 2019SOL    HW2 6114   3.576   3.246   2.620 -1.5035 -2.6644 -0.9173
 2020SOL     OW 6115   2.329   1.185   3.745  0.3355  0.5457 -0.5143
 2020SOL    HW1 6116   2.265   1.212   3.679 -2.8229  1.1897  2.4821
 2020SOL    HW2 6117   2.357   1.266   3.786 -0.3475  0.0511  1.0258
 2021SOL     OW 6118   3.300   1.756   3.135  0.1011  0.2424 -0.5056
 2021SOL    HW1 6119   3.299   1.827   3.070 -1.0042  0.9667  0.2522
 2021SOL    HW2 6120   3.210   1.723   3.135  0.5138 -0.9253 -0.5720
 2022SOL     OW 6121   1.527   1.406   2.135  0.2712 -0.1023  0.1857
 2022SOL    HW1 6122   1.622   1.395   2.144  0.4930 -0.3175 -1.9145
 2022SOL    HW2 6123   1.496   1.320   2.106 -1.0206 -0.8603  3.4073
 2023SOL     OW 6124   3.145   0.726   0.036  0.3561  0.1669 -0.2994
 2023SOL    HW1 6125   3.104   0.786   0.097  0.5869 -0.6924  0.7293
 2023SOL    HW2 6126   3.096   0.737  -0.045 -0.6318  0.5710  0.3337
 2024SOL     OW 6127   0.583   0.170   3.615  0.0797 -0.0951  0.0770
 2024SOL    HW1 6128   0.617   0.100   3.671 -2.4814 -1.3143  0.2323
 2024SOL    HW2 6129   0.658   0.228   3.601  1.9811 -2.1802  0.9876
 2025SOL     OW 6130   3.432   4.100   4.184 -0.5038  0.1649  0.0647
 2025SOL    HW1 6131   3.445   4.191   4.212 -0.7781 -0.1640  1.3531
 2025SOL    HW2 6132   3.451   4.049   4.263 -0.0177 -0.9220 -0.7412
 2026SOL     OW 6133   4.665   0.729   0.596  0.4350  0.1758 -0.0565
 2026SOL    HW1 6134   4.674   0.635   0.581  2.0453  0.1477  0.9177
 2026SOL    HW2 6135   4.594   0.737   0.660 -0.0549 -0.3085 -0.5225
 2027SOL     OW 6136   4.563   1.560   0.617  0.0321 -0.1594 -0.0563
 2027SOL    HW1 6137   4.519   1.477   0.631 -0.4711 -0.1474 -1.3590
 2027SOL    HW2 6138   4.636   1.560   0.678  0.4871 -1.8926 -0.5531
 2028SOL     OW 6139   0.502   3.102   1.867  0.2512  0.5911 -0.7146
 2028SOL    HW1 6140   0.533   3.188   1.896  0.0092 -0.1233  1.8487
 2028SOL    HW2 6141   0.507   3.047   1.944  0.1280 -1.6724 -2.2208
 2029SOL     OW 6142   4.672   2.506   0.750  0.4688  0.9644 -0.4501
 2029SOL    HW1 6143   4.740   2.499   0.817 -0.5671  3.3069  1.0024
 2029SOL    HW2 6144   4.612   2.434   0.768  0.5770  1.1555  0.7680
 2030SOL     OW 6145   0.554   2.295   3.817  0.1119 -0.0552  0.5390
 2030SOL    HW1 6146   0.593   2.355   3.754 -0.4342 -1.1366 -0.8967
 2030SOL    HW2 6147   0.613   2.219   3.818 -0.3769 -0.4449  0.5989
 2031SOL     OW 6148   3.859   0.639   1.880  0.0445 -0.2313  0.0613
 2031SOL    HW1 6149   3.865   0.732   1.857 -2.0072 -0.5348 -2.1333
 2031SOL    HW2 6150   3.809   0.638   1.962  1.8876  0.6319  1.2622
 2032SOL     OW 6151   2.591   1.880   2.770 -0.1520 -0.4105 -0.1207
 2032SOL    HW1 6152   2.512   1.861   2.821 -1.2632  0.4758 -1.4316
 2032SOL    HW2 6153   2.573   1.965   2.728  2.8851  1.6141  2.2090
 2033SOL     OW 6154   3.202   4.175   4.480 -0.1847  0.0192 -0.1626
 2033SOL    HW1 6155   3.295   4.186   4.461 -0.0956 -1.6282 -0.8911
 2033SOL    HW2 6156   3.158   4.229   4.414  0.2597  0.4169 -0.1325
 2034SOL     OW 6157   0.965   2.567   3.701 -0.7614 -0.4880  0.3149
 2034SOL    HW1 6158   0.972   2.658   3.729  0.7891 -0.5619  0.2829
 2034SOL    HW2 6159   0.915   2.523   3.770 -1.9433  0.4622  0.0894
 2035SOL     OW 6160   2.297   2.204   0.977 -0.0817 -0.0116  0.8073
 2035SOL    HW1 6161   2.226   2.212   1.040 -0.4709  0.8312  0.2786
 2035SOL    HW2 6162   2.356   2.139   1.016 -0.3453  0.4319  2.0002
 2036SOL     OW 6163   0.949   4.801   2.879  0.0948 -0.0955  0.3188
 2036SOL    HW1 6164   0.975   4.877   2.827  0.8716 -0.5700 -0.0113
 2036SOL    HW2 6165   0.911   4.740   2.815 -1.8953  0.5782  0.7898
 2037SOL     OW 6166   4.856   3.965   1.161 -0.5150  0.1445  0.1206
 2037SOL    HW1 6167   4.918   4.004   1.223 -0.3189  0.6795 -0.4096
 2037SOL    HW2 6168   4.870   3.870   1.171  0.9084  0.2626 -0.5104
 2038SOL     OW 6169   0.313   0.208   3.646 -0.0577  0.0282 -0.0761
 2038SOL    HW1 6170   0.299   0.174   3.735  0.8000 -0.8687 -0.2705
 2038SOL    HW2 6171   0.408   0.203   3.634 -0.2725 -1.1516 -1.5389
 2039SOL     OW 6172   1.344   3.077   2.266 -0.5665  0.5359  0.4041
 2039SOL    HW1 6173   1.302   3.014   2.324 -1.2813 -1.4124 -2.0459
 2039SOL    HW2 6174   1.431   3.092   2.304 -0.2551 -2.2244  0.9309
 2040SOL     OW 6175   3.738   3.480   0.325 -0.1676  0.3897 -0.8013
 2040SOL    HW1 6176   3.703   3.515   0.407 -1.2062  2.1879 -1.9233
 2040SOL    HW2 6177   3.660   3.463   0.272  0.4848 -0.7556 -1.4226
 2041SOL     OW 6178   1.477   0.845   0.618 -0.4891 -0.0108  0.3092
 2041SOL    HW1 6179   1.462   0.778   0.685  0.5036 -0.4633  0.1014
 2041SOL    HW2 6180   1.534   0.909   0.661 -0.3342  0.0026  0.0861
 2042SOL     OW 6181   2.768   3.053   1.299 -0.2627 -0.2036 -0.4719
 2042SOL    HW1 6182   2.730   3.136   1.330  0.1909 -0.2564  0.2579
 2042SOL    HW2 6183   2.835   3.080   1.236 -0.4591 -0.0382 -0.6119
 2043SOL     OW 6184   1.420   4.899   5.002  0.1520  0.4272  0.6307
 2043SOL    HW1 6185   1.348   4.916   4.941 -0.0609  0.6447  0.9374
 2043SOL    HW2 6186   1.475   4.978   4.997  0.4035  0.2359  0.3511
 2044SOL     OW 6187   1.932   2.543   0.203  0.6490 -0.0570  0.1676
 2044SOL    HW1 6188   1.871   2.612   0.175  0.6041  0.3046  1.1356
 2044SOL    HW2 6189   1.965   2.573   0.287  1.1936 -0.8758  0.2506
 2045SOL     OW 6190   0.919   1.093   3.719  0.1387 -0.3843  0.2197
 2045SOL    HW1 6191   0.865   1.015   3.730 -1.1828  0.5060  0.4233
 2045SOL    HW2 6192   0.884   1.135   3.640  0.1957  0.4641  0.6329
 2046SOL     OW 6193   0.695   2.440   3.603 -0.4866  0.0808 -0.2301
 2046SOL    HW1 6194   0.772   2.493   3.583  0.2166 -0.3521  1.1975
 2046SOL    HW2 6195   0.625   2.478   3.549 -0.0549  2.5713  0.8269
 2047SOL     OW 6196   4.055   2.379   0.261  0.2496 -0.2854  0.0769
 2047SOL    HW1 6197   3.965   2.365   0.290  0.7381 -2.6508  0.7362
 2047SOL    HW2 6198   4.060   2.333   0.177  0.7658  0.1053 -0.1105
 2048SOL     OW 6199   2.219   0.802   2.815  0.2858 -0.2320 -0.3961
 2048SOL    HW1 6200   2.285   0.862   2.849 -0.2680 -0.0811  0.4380
 2048SOL    HW2 6201   2.157   0.858   2.768  1.5193 -0.5320 -2.4848
 2049SOL     OW 6202   3.752   2.771   1.129  0.4624 -0.0519 -0.2585
 2049SOL    HW1 6203   3.800   2.835   1.077 -0.2755  0.5460 -0.2168
 2049SOL    HW2 6204   3.699   2.823   1.189 -0.8020 -0.6617 -0.8075
 2050SOL     OW 6205   1.008   0.236   1.267  0.3429 -0.1578 -0.3910
 2050SOL    HW1 6206   0.963   0.294   1.206 -0.6157 -0.3270  0.1443
 2050SOL    HW2 6207   1.079   0.197   1.215 -1.0788 -1.1032 -1.7011
 2051SOL     OW 6208   0.691   4.262   3.667  0.0483  0.0457 -0.4510
 2051SOL    HW1 6209   0.734   4.179   3.651 -0.6392 -0.7482  1.4837
 2051SOL    HW2 6210   0.678   4.301   3.580 -1.0719 -2.5931 -1.5606
 2052SOL     OW 6211   1.283   4.447   3.256 -0.4357 -0.0516  0.4275
 2052SOL    HW1 6212   1.200   4.488   3.229 -0.6537 -0.7299  0.0457
 2052SOL    HW2 6213   1.349   4.515   3.242 -0.8057  0.2032 -0.1263
 2053SOL     OW 6214   3.791   4.593   3.931  0.1203  0.5813 -0.1329
 2053SOL    HW1 6215   3.780   4.498   3.932  0.3771  0.5225  2.2277
 2053SOL    HW2 6216   3.827   4.612   3.845 -1.3269 -1.2743 -1.2266
 2054SOL     OW 6217   3.875   1.126   2.692  0.3118 -0.3739  0.1086
 2054SOL    HW1 6218   3.823   1.116   2.612 -0.1741  2.6283 -0.0634
 2054SOL    HW2 6219   3.963   1.147   2.660 -0.0390  1.5358  0.2674
 2055SOL     OW 6220   0.487   0.934   2.570  0.7373  0.0157  0.0561
 2055SOL    HW1 6221   0.568   0.895   2.603  1.2506 -1.9767 -3.1492
 2055SOL    HW2 6222   0.441   0.861   2.529 -1.4737  1.6349 -0.4969
 2056SOL     OW 6223   0.810   2.225   1.516  0.0014 -0.0143  0.4601
 2056SOL    HW1 6224   0.826   2.289   1.446 -0.3756 -1.2381 -0.7921
 2056SOL    HW2 6225   0.724   2.248   1.551  0.9925  1.7824  1.8809
 2057SOL     OW 6226   1.084   4.464   4.837 -0.3154  0.2302  0.4733
 2057SOL    HW1 6227   1.080   4.525   4.763  0.4386 -0.6603 -0.3277
 2057SOL    HW2 6228   0.996   4.465   4.874 -1.6216 -1.5238 -2.2913
 2058SOL     OW 6229   0.872   4.591   0.426  0.2379 -0.1001  1.1422
 2058SOL    HW1 6230   0.793   4.642   0.446 -1.3878 -1.9967 -0.0592
 2058SOL    HW2 6231   0.933   4.655   0.388 -0.6275  1.4562  2.2735
 2059SOL     OW 6232   2.467   1.681   4.513  0.1253  0.6865  0.0837
 2059SOL    HW1 6233   2.487   1.685   4.607 -0.3176  0.3416  0.1949
 2059SOL    HW2 6234   2.373   1.696   4.508 -0.5223 -2.5810  0.0012
 2060SOL     OW 6235   1.801   0.214   3.300  0.1445 -0.1721 -0.3151
 2060SOL    HW1 6236   1.889   0.194   3.330  0.4815 -3.4870 -2.9316
 2060SOL    HW2 6237   1.749   0.225   3.380  1.9482 -3.1695  1.4425
 2061SOL     OW 6238   0.154   2.799   4.029 -0.4940  1.0734 -0.1898
 2061SOL    HW1 6239   0.129   2.730   4.090  1.8394  0.4641  0.1779
 2061SOL    HW2 6240   0.137   2.880   4.078 -2.3212  0.7717 -0.2583
 2062SOL     OW 6241   4.906   3.672   1.154 -0.5963  0.0895 -0.2310
 2062SOL    HW1 6242   4.927   3.597   1.100  0.3109  0.2435 -0.0969
 2062SOL    HW2 6243   4.871   3.635   1.235  1.5350 -0.2788  0.5802
 2063SOL     OW 6244   2.793   2.501   1.014  0.6346  0.0191  0.4353
 2063SOL    HW1 6245   2.810   2.478   0.922 -0.4877  1.2708 -0.1145
 2063SOL    HW2 6246   2.869   2.554   1.039  0.6186  0.2467  0.0128
 2064SOL     OW 6247   3.356   0.658   3.074  0.1316  0.2042  0.1054
 2064SOL    HW1 6248   3.297   0.689   3.005  1.3359 -0.6169 -1.3533
 2064SOL    HW2 6249   3.379   0.736   3.124 -1.5011  0.6697  0.1846
 2065SOL     OW 6250   3.862   4.295   3.717 -0.5651 -0.5951 -0.2350
 2065SOL    HW1 6251   3.948   4.307   3.757 -0.0102  0.8844 -1.7614
 2065SOL    HW2 6252   3.862   4.204   3.686  0.8325 -0.3444 -1.0314
 2066SOL     OW 6253   4.576   3.017   4.100 -0.3964 -0.2821 -0.1213
 2066SOL    HW1 6254   4.573   3.061   4.185  0.0147  0.9423 -0.7170
 2066SOL    HW2 6255   4.550   2.926   4.119 -2.9316  0.5719  0.8878
 2067SOL     OW 6256   4.822   1.145   1.575  0.1985 -0.0490 -0.3880
 2067SOL    HW1 6257   4.791   1.065   1.532 -1.6169  0.5733 -0.3307
 2067SOL    HW2 6258   4.782   1.216   1.526  2.5525  0.9359 -1.0290
 2068SOL     OW 6259   2.382   0.594   1.568 -0.2932  0.1071 -0.1953
 2068SOL    HW1 6260   2.397   0.538   1.492 -1.2911 -0.9770  0.3922
 2068SOL    HW2 6261   2.380   0.683   1.532  3.2353  0.0742 -0.9103
 2069SOL     OW 6262   1.818   0.827   1.973  0.2636 -0.1338  0.1828
 2069SOL    HW1 6263   1.767   0.859   2.048 -0.2024  0.0412 -0.2017
 2069SOL    HW2 6264   1.887   0.893   1.961 -0.1697  0.2871 -0.0612
 2070SOL     OW 6265   3.023   1.466   1.261  0.1636 -0.3804 -0.2644
 2070SOL    HW1 6266   3.001   1.546   1.214  0.7924  1.0290  1.7052
 2070SOL    HW2 6267   3.117   1.455   1.247  0.4443  0.2835  0.8881
 2071SOL     OW 6268   1.831   2.336   4.134 -0.2016 -0.1607  0.4766
 2071SOL    HW1 6269   1.770   2.399   4.172 -0.2828  0.0678 -0.0371
 2071SOL    HW2 6270   1.784   2.298   4.060  0.3702  0.1947 -0.0733
 2072SOL     OW 6271   4.592   2.956   2.208 -0.1863 -0.3287 -0.3809
 2072SOL    HW1 6272   4.512   2.988   2.168 -0.4807  0.0485  0.4865
 2072SOL    HW2 6273   4.589   2.861   2.195 -1.0095 -0.3714  0.0637
 2073SOL     OW 6274   2.695   4.695   2.616  0.1430  0.1343 -0.1885
 2073SOL    HW1 6275   2.681   4.673   2.709 -2.3079  0.1577 -0.4887
 2073SOL    HW2 6276   2.739   4.618   2.580 -0.5935 -0.6947  0.6128
 2074SOL     OW 6277   4.371   3.612   4.092 -0.3699  0.6128 -0.3579
 2074SOL    HW1 6278   4.307   3.540   4.098 -0.6328  0.8095 -0.7215
 2074SOL    HW2 6279   4.426   3.589   4.017 -0.1400  0.5455 -0.1698
 2075SOL     OW 6280   0.102   1.839   2.815 -0.1200 -0.2240  0.6862
 2075SOL    HW1 6281   0.097   1.767   2.752  0.6594 -1.3017  1.8108
 2075SOL    HW2 6282   0.192   1.836   2.848  0.4978  2.3899 -0.4819
 2076SOL     OW 6283   4.074   3.223   2.216 -0.0005  0.3023 -0.7140
 2076SOL    HW1 6284   4.009   3.292   2.202 -1.5847 -1.0415 -0.3239
 2076SOL    HW2 6285   4.123   3.218   2.134  0.2582  1.9798 -0.6806
 2077SOL     OW 6286   3.691   4.942   4.823  0.4464  0.2334  0.2280
 2077SOL    HW1 6287   3.766   4.943   4.883  0.6432 -0.3440  0.0010
 2077SOL    HW2 6288   3.635   5.014   4.852  2.4863  2.6343 -1.4073
 2078SOL     OW 6289   3.816   3.540   1.878  0.0418  0.6168  0.1600
 2078SOL    HW1 6290   3.785   3.629   1.865 -0.5220  0.2783 -0.9723
 2078SOL    HW2 6291   3.878   3.525   1.807 -0.6226 -0.2152 -0.2618
 2079SOL     OW 6292   4.392   0.414   4.291 -0.5719  0.2219 -0.7809
 2079SOL    HW1 6293   4.384   0.490   4.233 -0.4469  1.2037  0.4578
 2079SOL    HW2 6294   4.433   0.347   4.236  1.8562  1.9026 -1.1845
 2080SOL     OW 6295   1.227   4.087   4.774  0.4661 -0.1332 -0.0080
 2080SOL    HW1 6296   1.190   4.047   4.695  0.6812 -1.7050  0.6506
 2080SOL    HW2 6297   1.159   4.078   4.840  1.0227 -0.6580  0.5113
 2081SOL     OW 6298   3.456   0.869   3.235  0.2909  0.4191  0.4981
 2081SOL    HW1 6299   3.487   0.796   3.287  0.2156  1.5062  2.1561
 2081SOL    HW2 6300   3.515   0.941   3.257  1.2519  0.5387 -2.1848
 2082SOL     OW 6301   3.104   0.364   3.283 -0.1964 -0.3166  0.3214
 2082SOL    HW1 6302   3.021   0.333   3.319  0.0659 -0.3361  0.9195
 2082SOL    HW2 6303   3.103   0.333   3.193 -2.1840  2.2304 -0.6605
 2083SOL     OW 6304   1.459   2.187   1.271 -0.5398 -0.1796 -0.6623
 2083SOL    HW1 6305   1.488   2.209   1.183 -1.3342  0.5189 -0.7612
 2083SOL    HW2 6306   1.373   2.145   1.258 -0.8515  0.3063 -0.2045
 2084SOL     OW 6307   3.887   4.929   1.878  0.0652  0.4895  0.5753
 2084SOL    HW1 6308   3.889   5.017   1.915  0.3983  0.2279  1.2232
 2084SOL    HW2 6309   3.810   4.888   1.918  0.0780  0.3979  0.5055
 2085SOL     OW 6310   1.271   3.756   4.064 -0.8527 -0.3008  0.1015
 2085SOL    HW1 6311   1.366   3.743   4.066 -0.6791  0.7567 -0.5763
 2085SOL    HW2 6312   1.246   3.740   3.973 -0.9816  1.6119 -0.2235
 2086SOL     OW 6313   1.534   2.409   3.294  0.0372 -0.2180  0.5466
 2086SOL    HW1 6314   1.541   2.499   3.264  2.3833 -0.5257 -0.0072
 2086SOL    HW2 6315   1.624   2.380   3.305 -0.5105 -3.3232 -1.8204
 2087SOL     OW 6316   0.366   4.214   1.533 -0.7871 -0.0509 -0.4181
 2087SOL    HW1 6317   0.373   4.120   1.550  0.6529  0.0024 -0.6202
 2087SOL    HW2 6318   0.389   4.255   1.617 -0.6719  0.1294 -0.5370
 2088SOL     OW 6319   2.811   4.502   0.268 -0.3703  0.0282 -0.3066
 2088SOL    HW1 6320   2.858   4.579   0.301 -1.7583  0.1693  1.4750
 2088SOL    HW2 6321   2.870   4.429   0.286  0.3410  0.4919 -0.6831
 2089SOL     OW 6322   1.795   4.967  -0.009 -0.6499 -0.3376  0.1765
 2089SOL    HW1 6323   1.774   5.058   0.013 -2.1814 -0.1204 -1.9163
 2089SOL    HW2 6324   1.788   4.920   0.074  0.0884  1.4020  1.2866
 2090SOL     OW 6325   4.123   4.278   3.409  0.0886  0.3385 -0.4451
 2090SOL    HW1 6326   4.163   4.326   3.336  1.0434  0.2363 -0.0112
 2090SOL    HW2 6327   4.175   4.304   3.485  0.8037 -1.5600 -0.2312
 2091SOL     OW 6328   4.548   2.407   3.963 -0.0895  0.0141 -0.2150
 2091SOL    HW1 6329   4.534   2.330   4.018  0.8157  0.7115  1.0422
 2091SOL    HW2 6330   4.465   2.454   3.965 -0.3399 -0.4285 -0.1763
 2092SOL     OW 6331   3.137   2.897   1.106  0.3689  0.0552  0.2952
 2092SOL    HW1 6332   3.041   2.899   1.112  0.3715  0.9492  0.1905
 2092SOL    HW2 6333   3.166   2.966   1.165  0.8000  1.9668 -1.9919
 2093SOL     OW 6334   2.932   4.940   0.225  0.1096  0.2918  0.4576
 2093SOL    HW1 6335   2.883   5.019   0.201 -1.4121 -1.0183 -0.9963
 2093SOL    HW2 6336   2.970   4.960   0.311  1.1739  3.1878 -0.5817
 2094SOL     OW 6337   4.104   0.340   2.887  0.4256  0.1100 -0.0989
 2094SOL    HW1 6338   4.048   0.382   2.822 -0.3870  0.5386  0.8435
 2094SOL    HW2 6339   4.063   0.362   2.971  0.6519 -1.5752  0.4907
 2095SOL     OW 6340   1.845   3.844   0.595  0.6986 -0.1919 -0.2542
 2095SOL    HW1 6341   1.761   3.849   0.642  1.0433  0.7991  0.2842
 2095SOL    HW2 6342   1.821   3.848   0.503  0.0774 -1.1088 -0.1425
 2096SOL     OW 6343   1.387   0.206   1.364  0.2278  0.2240 -0.5782
 2096SOL    HW1 6344   1.419   0.224   1.275  1.8994 -1.7836 -0.4700
 2096SOL    HW2 6345   1.329   0.131   1.353 -0.6837  0.8598 -0.1389
 2097SOL     OW 6346   3.031   1.936   2.787  0.2018  0.0005 -0.2373
 2097SOL    HW1 6347   2.981   2.007   2.747  1.1121  0.8257  0.0617
 2097SOL    HW2 6348   3.008   1.859   2.735 -1.8678  0.2094  0.2806
 2098SOL     OW 6349   4.023   0.131   1.673  0.5146  0.4591 -0.0676
 2098SOL    HW1 6350   4.026   0.036   1.682  0.6544  0.2382 -1.9418
 2098SOL    HW2 6351   3.933   0.150   1.646  0.5953  0.8199 -0.0998
 2099SOL     OW 6352   2.165   0.754   4.916 -0.0075 -0.6299  0.1552
 2099SOL    HW1 6353   2.115   0.818   4.865 -0.6490 -0.8654  0.4635
 2099SOL    HW2 6354   2.168   0.792   5.004 -0.3171 -0.9760  0.3192
 2100SOL     OW 6355   3.271   0.544   3.624 -0.0936  0.3299 -0.3712
 2100SOL    HW1 6356   3.176   0.545   3.615 -0.0032  0.9537 -1.4824
 2100SOL    HW2 6357   3.291   0.456   3.654 -1.1303  0.6528  1.3986
 2101SOL     OW 6358   4.694   3.011   1.294  0.0532  0.2918  0.1157
 2101SOL    HW1 6359   4.699   2.942   1.360 -0.5088  0.8881  0.8027
 2101SOL    HW2 6360   4.641   3.079   1.335 -0.3898  0.6359 -1.0024
 2102SOL     OW 6361   3.170   1.945   4.312 -0.1344 -0.4355  0.3332
 2102SOL    HW1 6362   3.101   2.008   4.292  0.1001 -0.5625 -0.9740
 2102SOL    HW2 6363   3.129   1.859   4.299  0.3594 -0.5106 -0.8814
 2103SOL     OW 6364   0.862   4.042   3.557 -0.2753 -0.0946  0.0550
 2103SOL    HW1 6365   0.930   4.048   3.624 -1.1179 -0.7306  0.9936
 2103SOL    HW2 6366   0.877   4.118   3.500  0.0044  0.8746  1.3909
 2104SOL     OW 6367   3.139   1.963   3.939  0.2575 -0.1273 -0.0123
 2104SOL    HW1 6368   3.226   1.963   3.898  0.3093  0.2271  0.0920
 2104SOL    HW2 6369   3.124   2.055   3.962 -0.2138 -0.1604 -0.1758
 2105SOL     OW 6370   0.628   1.967   4.512 -0.0119 -0.9322 -0.2786
 2105SOL    HW1 6371   0.568   1.964   4.438  0.7060  1.1691 -1.0063
 2105SOL    HW2 6372   0.715   1.964   4.473  0.3726 -0.2484  0.4924
 2106SOL     OW 6373   4.757   2.087   2.947  0.0078 -0.0863 -0.2106
 2106SOL    HW1 6374   4.695   2.110   3.017  1.5007  1.1544  0.7694
 2106SOL    HW2 6375   4.725   2.003   2.914 -1.2690 -0.2758  1.3579
 2107SOL     OW 6376   2.542   1.716   3.572 -0.1764 -0.3323  0.8872
 2107SOL    HW1 6377   2.601   1.698   3.645 -0.4727 -2.8112  0.6000
 2107SOL    HW2 6378   2.598   1.710   3.494 -0.3878 -0.5529  0.7504
 2108SOL     OW 6379   2.940   1.081   4.369  0.1369  0.0692 -0.2641
 2108SOL    HW1 6380   3.009   1.026   4.333 -0.4318  0.0256 -1.3153
 2108SOL    HW2 6381   2.859   1.042   4.336 -0.4242 -0.0121  1.1164
 2109SOL     OW 6382   0.940   2.282   4.101 -0.0013  0.0986  0.0778
 2109SOL    HW1 6383   0.877   2.263   4.170  1.0534 -0.4127  0.9325
 2109SOL    HW2 6384   0.994   2.204   4.095  2.0524  1.3436  1.0576
 2110SOL     OW 6385   4.774   2.116   0.055  0.4600 -0.0856  0.0971
 2110SOL    HW1 6386   4.867   2.134   0.067  0.5754 -0.1729 -0.5993
 2110SOL    HW2 6387   4.733   2.143   0.137  1.3588 -1.9527  1.2504
 2111SOL     OW 6388   4.747   4.829   4.459  0.1765 -0.5508  0.3152
 2111SOL    HW1 6389   4.811   4.896   4.433 -0.1236  1.0784  3.2730
 2111SOL    HW2 6390   4.670   4.848   4.405  0.4294  0.8894  0.4150
 2112SOL     OW 6391   4.117   0.568   2.186 -0.4215 -0.0763  0.3843
 2112SOL    HW1 6392   4.053   0.636   2.166  1.0606  0.9876 -1.0334
 2112SOL    HW2 6393   4.108   0.505   2.114  1.1656  0.9067 -0.7241
 2113SOL     OW 6394   1.636   3.110   1.256  0.1634 -0.0056  0.1502
 2113SOL    HW1 6395   1.619   3.103   1.162  0.0157 -0.2932  0.1962
 2113SOL    HW2 6396   1.655   3.203   1.270 -1.3277  0.3434  0.0900
 2114SOL     OW 6397   0.686   2.034   4.094  0.4502 -0.5582 -0.5470
 2114SOL    HW1 6398   0.644   1.948   4.095  1.0245 -0.8441 -0.5814
 2114SOL    HW2 6399   0.758   2.024   4.031  0.6583 -0.1222 -0.3782
 2115SOL     OW 6400   2.398   3.146   1.906 -0.4293 -0.5271 -0.5524
 2115SOL    HW1 6401   2.484   3.180   1.933  0.6531 -2.4862 -1.3374
 2115SOL    HW2 6402   2.363   3.106   1.986 -0.1053 -0.7186 -0.5031
 2116SOL     OW 6403   4.444   3.094   0.518  0.4248  0.4636  0.0559
 2116SOL    HW1 6404   4.449   3.154   0.444 -0.8249 -0.8409 -1.1389
 2116SOL    HW2 6405   4.351   3.073   0.527  0.8998 -2.5295 -0.6584
 2117SOL     OW 6406   1.597   4.406   3.822  0.1515  0.0870 -0.1946
 2117SOL    HW1 6407   1.638   4.436   3.741 -0.4003  0.6330 -0.2759
 2117SOL    HW2 6408   1.549   4.327   3.797  1.1284 -0.5614 -0.0976
 2118SOL     OW 6409   4.970   1.543   3.848  0.5123  0.0512 -0.0812
 2118SOL    HW1 6410   4.925   1.542   3.763  2.1108  0.0124 -0.9593
 2118SOL    HW2 6411   4.903   1.514   3.910 -0.2725 -1.4748 -1.5470
 2119SOL     OW 6412   2.109   3.720   4.588  0.3222 -0.2769  0.3004
 2119SOL    HW1 6413   2.036   3.733   4.648 -0.5548 -1.3295 -0.5080
 2119SOL    HW2 6414   2.136   3.808   4.563  0.1008  0.1472  1.5125
 2120SOL     OW 6415   2.239   0.425   4.263 -0.5491 -0.5641 -0.3524
 2120SOL    HW1 6416   2.317   0.451   4.214  0.3106  2.3972  2.2497
 2120SOL    HW2 6417   2.269   0.353   4.319 -0.2320 -0.7100 -0.7071
 2121SOL     OW 6418   4.626   3.720   2.758 -0.0295  0.1970 -0.2487
 2121SOL    HW1 6419   4.634   3.802   2.806 -0.9328  0.0902  0.1047
 2121SOL    HW2 6420   4.715   3.701   2.727  0.5820  0.2857  1.3561
 2122SOL     OW 6421   1.941   3.348   4.397 -0.5558 -0.3717 -0.1828
 2122SOL    HW1 6422   1.907   3.413   4.459  0.8535  0.7884 -0.5749
 2122SOL    HW2 6423   1.864   3.321   4.347 -0.8361  3.5151 -2.2988
 2123SOL     OW 6424   2.128   0.251   4.851  0.1924  0.2429 -0.8709
 2123SOL    HW1 6425   2.185   0.319   4.887  1.5122 -0.9462 -0.6171
 2123SOL    HW2 6426   2.189   0.187   4.813 -0.8831 -1.6867  0.4841
 2124SOL     OW 6427   0.296   0.084   0.966 -0.8881 -0.2096 -0.1617
 2124SOL    HW1 6428   0.347   0.008   0.994  0.7052  0.1350 -1.9089
 2124SOL    HW2 6429   0.348   0.159   0.993 -1.6657  0.2207  0.1489
 2125SOL     OW 6430   1.115   1.507   0.479 -0.2113 -0.1191  0.0673
 2125SOL    HW1 6431   1.131   1.595   0.512 -0.8484  0.2120 -0.4758
 2125SOL    HW2 6432   1.040   1.517   0.420 -1.7241 -1.3925  1.6651
 2126SOL     OW 6433   0.254   1.626   0.514 -0.3869 -0.2003  0.1739
 2126SOL    HW1 6434   0.164   1.634   0.483  0.3553  0.0868 -2.0388
 2126SOL    HW2 6435   0.291   1.553   0.464  0.8124  0.1056  0.5674
 2127SOL     OW 6436   4.981   1.072   1.194  0.0499 -0.1149 -0.0740
 2127SOL    HW1 6437   4.904   1.017   1.183  0.6418 -0.7890 -1.0713
 2127SOL    HW2 6438   4.978   1.133   1.120 -0.3800  0.9342  0.7943
 2128SOL     OW 6439   4.456   4.173   2.239 -0.2760  0.3693 -0.0247
 2128SOL    HW1 6440   4.525   4.158   2.176 -0.0131  1.2627  0.0260
 2128SOL    HW2 6441   4.380   4.127   2.204  0.4187 -0.9172  0.0979
 2129SOL     OW 6442   3.079   4.902   4.794  0.0071 -0.4203  0.2431
 2129SOL    HW1 6443   2.999   4.934   4.834 -0.3061 -1.0331  0.1175
 2129SOL    HW2 6444   3.148   4.924   4.857  0.1655  2.5321 -0.8303
 2130SOL     OW 6445   4.876   3.458   0.407 -0.7382  0.3250  0.2561
 2130SOL    HW1 6446   4.937   3.434   0.338  0.3730  1.7450  0.7006
 2130SOL    HW2 6447   4.885   3.389   0.473 -0.0144  0.2288  0.0642
 2131SOL     OW 6448   0.954   0.862   1.116 -0.3494 -0.5513  0.4598
 2131SOL    HW1 6449   1.005   0.943   1.119 -1.0752 -0.1014  0.9946
 2131SOL    HW2 6450   0.879   0.879   1.173 -1.3493 -1.0249 -0.6676
 2132SOL     OW 6451   4.147   0.189   0.105  0.1549 -0.1973 -0.0862
 2132SOL    HW1 6452   4.189   0.190   0.191  1.3666  0.8552 -0.6563
 2132SOL    HW2 6453   4.056   0.215   0.122 -0.2538 -2.1630  1.1262
 2133SOL     OW 6454   1.841   4.629   1.989 -0.0928 -0.4246  0.2069
 2133SOL    HW1 6455   1.832   4.644   2.083 -0.0124  0.8010  0.0371
 2133SOL    HW2 6456   1.834   4.716   1.950 -0.2611 -0.9289 -0.9394
 2134SOL     OW 6457   0.440   1.887   4.781  0.6729  0.4332  0.0731
 2134SOL    HW1 6458   0.498   1.812   4.770  0.9998  0.8378 -1.0619
 2134SOL    HW2 6459   0.478   1.955   4.726  0.1943  1.3323  0.8273
 2135SOL     OW 6460   2.670   0.601   3.560 -0.3108  0.1536  0.5684
 2135SOL    HW1 6461   2.654   0.582   3.467  1.8608  0.6659  0.0417
 2135SOL    HW2 6462   2.589   0.642   3.590  0.1799  3.5785 -2.1622
 2136SOL     OW 6463   4.886   3.214   3.421  0.2324 -0.0848  0.2797
 2136SOL    HW1 6464   4.929   3.274   3.360 -1.0920  1.4774  0.8015
 2136SOL    HW2 6465   4.816   3.267   3.460 -2.3185 -2.5025 -0.6838
 2137SOL     OW 6466   2.334   1.261   2.744  0.3603 -0.1121 -0.3072
 2137SOL    HW1 6467   2.322   1.195   2.812 -1.5985 -0.3517 -0.7936
 2137SOL    HW2 6468   2.404   1.226   2.688 -0.9522 -2.0898 -0.8277
 2138SOL     OW 6469   3.134   3.080   4.003 -0.1284  0.1997  0.4569
 2138SOL    HW1 6470   3.202   3.148   4.014 -0.3802  0.4588  0.4308
 2138SOL    HW2 6471   3.073   3.095   4.075 -0.2234  0.0475  0.4076
 2139SOL     OW 6472   4.718   4.297   3.077  0.7323 -0.4147  0.7344
 2139SOL    HW1 6473   4.677   4.234   3.136 -0.1513 -0.3676  0.1881
 2139SOL    HW2 6474   4.784   4.341   3.131  1.2821 -1.7068  1.1578
 2140SOL     OW 6475   1.603   1.480   3.203  0.4436 -0.0612  0.3786
 2140SOL    HW1 6476   1.576   1.477   3.111  1.2840 -0.0473  0.1222
 2140SOL    HW2 6477   1.521   1.489   3.252  0.1124  2.3345 -0.4791
 2141SOL     OW 6478   0.402   0.861   3.623 -0.1537 -0.3830 -0.2650
 2141SOL    HW1 6479   0.455   0.885   3.699  0.9226  0.0325 -1.1217
 2141SOL    HW2 6480   0.314   0.890   3.645 -0.1844 -1.5873  1.4250
 2142SOL     OW 6481   0.773   1.088   2.041  0.2891  0.1183  0.5037
 2142SOL    HW1 6482   0.683   1.103   2.011  0.3878  3.0721  1.3605
 2142SOL    HW2 6483   0.811   1.029   1.977 -1.0349  2.1146 -2.3087
 2143SOL     OW 6484   0.619   3.832   0.236  0.1220  0.2342  0.1644
 2143SOL    HW1 6485   0.528   3.814   0.216  0.4659 -1.6588  0.1327
 2143SOL    HW2 6486   0.666   3.752   0.213  1.6666  0.8342  1.0256
 2144SOL     OW 6487   2.688   1.463   4.883  0.1170 -0.7635  0.5256
 2144SOL    HW1 6488   2.699   1.497   4.972  0.0422  1.5300 -0.2865
 2144SOL    HW2 6489   2.768   1.412   4.867  0.8172  0.0411  1.3803
 2145SOL     OW 6490   4.394   1.384   3.605  0.2818  0.0736  0.7392
 2145SOL    HW1 6491   4.406   1.450   3.674  1.3391  1.1218 -0.3756
 2145SOL    HW2 6492   4.456   1.315   3.627  1.1554  0.7504  0.4721
 2146SOL     OW 6493   4.717   4.348   0.401  0.5493 -0.5626  0.1579
 2146SOL    HW1 6494   4.768   4.410   0.452 -0.9712  0.2865  0.7137
 2146SOL    HW2 6495   4.781   4.283   0.370  1.8555  0.1939  1.1845
 2147SOL     OW 6496   1.028   1.756   2.687  0.1284  0.7073 -0.1050
 2147SOL    HW1 6497   1.049   1.717   2.602 -0.1670  1.7990 -0.6902
 2147SOL    HW2 6498   1.002   1.846   2.667 -1.1093  0.6284  1.0178
 2148SOL     OW 6499   4.553   4.887   3.514 -0.2128 -0.1918 -0.1236
 2148SOL    HW1 6500   4.584   4.796   3.514 -0.4771 -0.3383 -2.6766
 2148SOL    HW2 6501   4.585   4.924   3.432 -1.5297  1.5386  0.0808
 2149SOL     OW 6502   1.769   3.661   2.997 -0.2722  0.3980 -0.0841
 2149SOL    HW1 6503   1.722   3.745   2.989 -0.2904  0.2562 -1.8126
 2149SOL    HW2 6504   1.700   3.595   2.988  0.1484  0.1915 -2.3044
 2150SOL     OW 6505   3.392   3.072   1.671 -0.0328  0.1331  0.2505
 2150SOL    HW1 6506   3.452   3.100   1.740  0.4609  1.0514 -0.5213
 2150SOL    HW2 6507   3.400   2.976   1.669  0.5006  0.1576  0.9601
 2151SOL     OW 6508   0.894   0.181   1.576  0.2583 -0.3890 -0.3099
 2151SOL    HW1 6509   0.919   0.089   1.571  0.4319 -0.3509 -0.1233
 2151SOL    HW2 6510   0.866   0.193   1.667  1.0224 -0.0506 -0.1200
 2152SOL     OW 6511   1.668   4.347   4.127  0.2005  0.5991 -0.0995
 2152SOL    HW1 6512   1.666   4.376   4.036 -1.6738  0.8818 -0.0087
 2152SOL    HW2 6513   1.584   4.304   4.141 -0.9909  3.3087  2.3112
 2153SOL     OW 6514   2.142   2.854   0.728 -0.1995  0.2916  0.4511
 2153SOL    HW1 6515   2.193   2.877   0.650  0.6636 -0.1356  0.8808
 2153SOL    HW2 6516   2.143   2.932   0.782 -0.6871  0.5452  0.1038
 2154SOL     OW 6517   3.603   0.226   3.991  0.1594  0.1926 -0.3224
 2154SOL    HW1 6518   3.662   0.167   4.039 -1.3046 -0.8070  0.3235
 2154SOL    HW2 6519   3.624   0.211   3.899 -0.5690 -1.8238 -0.2077
 2155SOL     OW 6520   2.915   3.858   2.521 -0.1278  0.2252 -0.2801
 2155SOL    HW1 6521   2.960   3.940   2.540  1.1926 -0.3586 -0.7709
 2155SOL    HW2 6522   2.984   3.792   2.520 -0.9641 -0.6729 -1.3390
 2156SOL     OW 6523   1.479   4.159   4.203  0.2859 -0.1443  0.1522
 2156SOL    HW1 6524   1.391   4.120   4.209 -0.2720  1.0820  0.1426
 2156SOL    HW2 6525   1.501   4.181   4.293  0.0122  0.7729 -0.0018
 2157SOL     OW 6526   1.038   1.833   1.756 -0.3765 -0.2490  0.5399
 2157SOL    HW1 6527   0.973   1.776   1.716  1.2418 -2.9869  1.5753
 2157SOL    HW2 6528   1.118   1.818   1.705  0.1380  1.0504  0.9111
 2158SOL     OW 6529   2.126   3.473   3.989 -0.4789 -0.6720 -0.5051
 2158SOL    HW1 6530   2.078   3.489   3.907  0.7188 -1.2860 -1.3628
 2158SOL    HW2 6531   2.142   3.379   3.989  0.3319 -0.5384 -0.0223
 2159SOL     OW 6532   1.812   1.414   0.131  0.2582  0.0246  0.8510
 2159SOL    HW1 6533   1.784   1.334   0.086  1.4130  0.4737 -0.7660
 2159SOL    HW2 6534   1.907   1.413   0.125  0.2970  1.4656  0.8939
 2160SOL     OW 6535   4.253   0.482   0.021 -0.3145 -0.2508  0.3347
 2160SOL    HW1 6536   4.232   0.402  -0.028 -1.7786  0.1563  0.2754
 2160SOL    HW2 6537   4.282   0.450   0.107 -1.3254 -0.8488  0.4726
 2161SOL     OW 6538   2.176   3.909   0.509 -0.5023 -0.4890  0.0252
 2161SOL    HW1 6539   2.146   3.823   0.479  0.1988 -0.4875 -0.7010
 2161SOL    HW2 6540   2.136   3.919   0.595  0.0599 -1.8951  0.4787
 2162SOL     OW 6541   4.171   2.296   3.462 -0.2531 -0.1782  0.7984
 2162SOL    HW1 6542   4.229   2.229   3.425 -1.1618 -0.8182  0.4924
 2162SOL    HW2 6543   4.086   2.253   3.470 -0.5508  0.5376  1.8502
 2163SOL     OW 6544   2.440   0.388   3.832  0.3809 -0.5361 -0.8467
 2163SOL    HW1 6545   2.401   0.347   3.755 -0.7486  0.8739 -1.0692
 2163SOL    HW2 6546   2.528   0.414   3.804  0.0352 -0.1817 -1.6314
 2164SOL     OW 6547   1.689   1.283   0.882 -0.3666 -0.1616  0.7752
 2164SOL    HW1 6548   1.608   1.273   0.932  0.5974 -1.1819  2.2049
 2164SOL    HW2 6549   1.734   1.356   0.925  0.4936 -1.0802  1.4612
 2165SOL     OW 6550   0.626   1.867   3.618 -0.1524 -0.2871  0.2443
 2165SOL    HW1 6551   0.536   1.866   3.651 -0.4183  0.6846 -0.4058
 2165SOL    HW2 6552   0.677   1.822   3.686 -1.0318 -0.3132  0.9063
 2166SOL     OW 6553   3.622   3.118   0.982  0.8765  0.2628 -0.0886
 2166SOL    HW1 6554   3.676   3.189   0.949  1.4638 -0.1024  0.0637
 2166SOL    HW2 6555   3.634   3.047   0.918 -0.0918  0.4651 -0.5010
 2167SOL     OW 6556   0.539   4.937   1.317 -0.3410 -0.4111 -0.4911
 2167SOL    HW1 6557   0.450   4.974   1.320  0.4372  1.6551 -1.0765
 2167SOL    HW2 6558   0.596   5.014   1.314  1.4647 -1.7061 -0.4370
 2168SOL     OW 6559   2.014   4.402   0.884  0.2412 -0.4631 -0.3578
 2168SOL    HW1 6560   2.060   4.451   0.952  0.9358 -0.5250 -0.7709
 2168SOL    HW2 6561   2.046   4.439   0.802 -1.3681  0.3323 -0.6658
 2169SOL     OW 6562   4.313   3.552   0.392 -0.9269  0.8235 -0.2584
 2169SOL    HW1 6563   4.323   3.462   0.363 -1.1895  1.0564 -1.1098
 2169SOL    HW2 6564   4.391   3.597   0.358 -0.6426  0.8529  0.4263
 2170SOL     OW 6565   2.767   3.328   2.364  0.3197 -0.3734  0.1149
 2170SOL    HW1 6566   2.687   3.381   2.365  0.5894  0.0758 -0.7705
 2170SOL    HW2 6567   2.736   3.239   2.378 -0.4210 -0.2897 -0.8582
 2171SOL     OW 6568   2.431   0.256   0.349  0.2356  0.0239  0.1937
 2171SOL    HW1 6569   2.462   0.183   0.296  1.9990  0.8506  0.0129
 2171SOL    HW2 6570   2.350   0.224   0.389 -1.2874 -0.6299 -3.0158
 2172SOL     OW 6571   1.208   2.072   4.582 -0.2835 -0.0978  0.0627
 2172SOL    HW1 6572   1.117   2.058   4.556 -0.4326  0.8386  0.0739
 2172SOL    HW2 6573   1.231   2.158   4.547  0.0682  0.4181  1.4995
 2173SOL     OW 6574   2.452   0.139   0.827 -0.0364 -0.2540 -0.5849
 2173SOL    HW1 6575   2.453   0.101   0.915 -0.9045 -1.6263 -1.1485
 2173SOL    HW2 6576   2.474   0.066   0.769  2.1971  0.9896 -1.4228
 2174SOL     OW 6577   3.252   4.967   2.018 -0.4630 -0.2150 -0.2977
 2174SOL    HW1 6578   3.278   4.880   1.987 -0.6546 -0.1739 -0.5845
 2174SOL    HW2 6579   3.172   4.987   1.968  0.4840  0.8349 -1.4511
 2175SOL     OW 6580   2.730   2.030   4.206  0.1033  0.2279  0.1399
 2175SOL    HW1 6581   2.772   1.952   4.169  0.1806 -0.7482  2.1635
 2175SOL    HW2 6582   2.664   1.996   4.267 -0.1288  1.7387  0.7888
 2176SOL     OW 6583   4.714   4.244   1.355  0.4872  0.0050 -0.1919
 2176SOL    HW1 6584   4.737   4.198   1.274 -0.9654  0.8682 -1.1365
 2176SOL    HW2 6585   4.639   4.197   1.389  0.1213  0.5723 -0.1967
 2177SOL     OW 6586   4.977   2.488   3.970 -0.0498 -0.2724 -0.0558
 2177SOL    HW1 6587   4.922   2.563   3.991 -1.3034 -1.2994  0.4583
 2177SOL    HW2 6588   4.996   2.448   4.055  1.1840 -0.1562 -0.2660
 2178SOL     OW 6589   4.130   2.037   4.102  0.5844 -0.1370 -0.3076
 2178SOL    HW1 6590   4.079   2.041   4.022  0.8736  0.2998 -0.4736
 2178SOL    HW2 6591   4.196   1.970   4.085  1.2017  0.5655 -0.7759
 2179SOL     OW 6592   2.263   3.067   1.685  0.3640 -0.5638 -0.1509
 2179SOL    HW1 6593   2.321   3.079   1.760  0.0236 -0.4081  0.0956
 2179SOL    HW2 6594   2.208   3.146   1.685  1.4272  0.2218 -1.5378
 2180SOL     OW 6595   3.170   1.182   3.352 -0.1080  0.2816  0.1736
 2180SOL    HW1 6596   3.109   1.252   3.330  0.1285  0.3529 -0.2558
 2180SOL    HW2 6597   3.192   1.142   3.268 -2.4906 -2.2249  0.6024
 2181SOL     OW 6598   4.465   0.300   4.750 -0.6934  0.0343  0.3773
 2181SOL    HW1 6599   4.461   0.391   4.720 -1.2294 -0.3241 -0.6607
 2181SOL    HW2 6600   4.374   0.274   4.762 -0.5360 -0.3148  0.8387
 2182SOL     OW 6601   2.743   2.166   1.953 -0.3993 -0.0325 -0.0466
 2182SOL    HW1 6602   2.666   2.223   1.952 -0.9397 -0.6767  1.7026
 2182SOL    HW2 6603   2.746   2.127   1.865 -1.2497  1.0417 -0.5714
 2183SOL     OW 6604   1.176   1.156   1.885  0.4266 -0.1517  0.2733
 2183SOL    HW1 6605   1.125   1.092   1.835  0.6118 -1.2835  1.4823
 2183SOL    HW2 6606   1.173   1.236   1.832 -1.4965 -0.5683 -0.3130
 2184SOL     OW 6607   4.136   1.629   0.320 -0.2784 -0.1428  0.1364
 2184SOL    HW1 6608   4.219   1.585   0.339  0.9704  1.8223 -0.3634
 2184SOL    HW2 6609   4.135   1.704   0.380 -0.9684  0.6912 -0.8890
 2185SOL     OW 6610   2.280   4.708   0.799  0.1818  0.4070 -0.3309
 2185SOL    HW1 6611   2.355   4.664   0.760 -0.2670 -0.5720 -0.1339
 2185SOL    HW2 6612   2.313   4.743   0.882  0.9216  1.7811 -1.1663
 2186SOL     OW 6613   2.785   0.377   0.378 -0.1641 -0.2307 -0.0890
 2186SOL    HW1 6614   2.823   0.316   0.441  0.2144  0.8783  0.7837
 2186SOL    HW2 6615   2.690   0.369   0.390 -0.2130 -1.8187 -1.1433
 2187SOL     OW 6616   4.001   0.482   2.666  0.9033  0.4530  0.1570
 2187SOL    HW1 6617   4.055   0.517   2.596  0.2601  1.7636  0.2924
 2187SOL    HW2 6618   4.008   0.546   2.737  0.3858 -0.1232  0.7489
 2188SOL     OW 6619   1.531   3.741   4.004 -0.2189 -0.5880 -0.4686
 2188SOL    HW1 6620   1.532   3.830   3.968 -0.0427  0.0811  1.0912
 2188SOL    HW2 6621   1.561   3.686   3.932  1.8365  0.8819 -0.8431
 2189SOL     OW 6622   1.367   1.834   4.508 -0.2092 -0.2707 -0.5293
 2189SOL    HW1 6623   1.328   1.917   4.535  0.9632 -0.0394  0.5613
 2189SOL    HW2 6624   1.323   1.768   4.563 -0.1344 -0.2025 -0.3880
 2190SOL     OW 6625   1.054   0.979   1.675  0.7083  0.0167  0.2384
 2190SOL    HW1 6626   1.132   1.009   1.628 -0.6660 -0.7106 -2.8128
 2190SOL    HW2 6627   1.035   0.893   1.636 -1.3738 -0.0007  1.1571
 2191SOL     OW 6628   4.781   0.137   0.824 -0.8059 -0.5986  0.4086
 2191SOL    HW1 6629   4.753   0.229   0.830 -1.8116 -0.8817  0.2162
 2191SOL    HW2 6630   4.712   0.094   0.774  0.7856 -1.0141 -1.5535
 2192SOL     OW 6631   2.769   4.629   1.168  0.2296  0.0669 -0.1859
 2192SOL    HW1 6632   2.822   4.594   1.240 -0.0064 -0.3681 -0.2194
 2192SOL    HW2 6633   2.760   4.555   1.107 -0.0327  0.2721 -0.3983
 2193SOL     OW 6634   0.076   4.147   3.088  0.0662  0.2812 -0.1526
 2193SOL    HW1 6635   0.143   4.195   3.137 -0.8999 -0.8857  2.4661
 2193SOL    HW2 6636   0.041   4.211   3.026  1.0076  2.0101  1.0301
 2194SOL     OW 6637   3.972   1.363   4.091 -0.6351 -0.4199  0.3674
 2194SOL    HW1 6638   3.892   1.311   4.094 -0.5050 -0.6165  3.2044
 2194SOL    HW2 6639   4.003   1.354   4.001 -3.5371 -0.6807 -0.7152
 2195SOL     OW 6640   4.141   4.136   3.156 -0.3020  0.3357  0.6687
 2195SOL    HW1 6641   4.125   4.164   3.246  0.7876 -2.4856  1.8570
 2195SOL    HW2 6642   4.210   4.195   3.125 -1.5502  2.1538  1.1704
 2196SOL     OW 6643   1.410   4.678   3.177 -0.2479  0.1595  0.1015
 2196SOL    HW1 6644   1.357   4.738   3.125  0.9695 -0.1266 -1.5554
 2196SOL    HW2 6645   1.500   4.698   3.153  0.2126 -2.6210 -0.9437
 2197SOL     OW 6646   1.833   0.292   0.699 -0.0509 -0.1097  0.5770
 2197SOL    HW1 6647   1.841   0.208   0.745  0.1411  0.6375  1.9726
 2197SOL    HW2 6648   1.905   0.345   0.734 -0.5002  0.8138  0.1301
 2198SOL     OW 6649   2.525   4.937   1.737  0.1219 -0.5072  0.2762
 2198SOL    HW1 6650   2.461   4.996   1.777  0.5356 -0.4692  0.9010
 2198SOL    HW2 6651   2.475   4.890   1.670 -0.0949  0.9162 -0.5983
 2199SOL     OW 6652   4.572   1.236   0.568  0.2292  0.0597 -0.0068
 2199SOL    HW1 6653   4.655   1.224   0.614 -0.9912 -0.8918  2.1287
 2199SOL    HW2 6654   4.573   1.170   0.499  0.7853 -0.7096  0.7205
 2200SOL     OW 6655   2.347   1.786   2.842  0.1722 -0.5712  0.1223
 2200SOL    HW1 6656   2.275   1.811   2.784 -0.0479  1.3716  1.1545
 2200SOL    HW2 6657   2.359   1.692   2.826 -0.9549 -0.4376 -1.8320
 2201SOL     OW 6658   1.087   0.370   1.521 -0.3624  0.3289 -0.4002
 2201SOL    HW1 6659   1.004   0.327   1.537 -0.2761 -0.2644 -1.4564
 2201SOL    HW2 6660   1.130   0.316   1.454  0.8021  0.7061  0.0090
 2202SOL     OW 6661   0.706   0.464   2.850 -0.5818  0.1500 -0.0498
 2202SOL    HW1 6662   0.620   0.445   2.888 -0.1404 -0.2831  0.7657
 2202SOL    HW2 6663   0.755   0.505   2.922 -0.4782  1.4688 -0.8486
 2203SOL     OW 6664   4.054   4.233   4.310 -0.3651 -0.0466 -0.5349
 2203SOL    HW1 6665   4.060   4.302   4.244 -0.4008 -0.0447 -0.5361
 2203SOL    HW2 6666   4.032   4.278   4.391  0.3578  0.0276 -0.3783
 2204SOL     OW 6667   1.724   2.700   4.036  0.4067  0.1960 -0.4339
 2204SOL    HW1 6668   1.642   2.662   4.003  0.1954  0.2793 -0.0075
 2204SOL    HW2 6669   1.750   2.641   4.107  0.7015  0.1904 -0.5453
 2205SOL     OW 6670   4.326   2.989   2.550  0.4454  0.1495  0.3946
 2205SOL    HW1 6671   4.336   2.973   2.644  1.0634 -2.3054 -0.0245
 2205SOL    HW2 6672   4.411   2.966   2.513 -0.8571 -2.6456 -1.1492
 2206SOL     OW 6673   1.020   0.380   0.741 -0.2206  0.7008  0.2967
 2206SOL    HW1 6674   1.030   0.448   0.674  0.9837  1.0723  0.8267
 2206SOL    HW2 6675   1.099   0.327   0.733 -1.1097 -0.6087 -0.0546
 2207SOL     OW 6676   2.727   4.104   4.499 -0.6823  0.3085 -0.3092
 2207SOL    HW1 6677   2.734   4.009   4.491 -3.2674 -0.0877  1.0161
 2207SOL    HW2 6678   2.738   4.121   4.592 -1.5479  1.1392 -0.3400
 2208SOL     OW 6679   4.791   2.721   3.060 -0.5234  0.4228  0.1776
 2208SOL    HW1 6680   4.878   2.709   3.098 -0.5427 -1.2860 -0.2422
 2208SOL    HW2 6681   4.806   2.722   2.966 -1.0851 -1.5258  0.0265
 2209SOL     OW 6682   1.944   3.997   0.149 -0.1518 -0.0385 -0.1423
 2209SOL    HW1 6683   1.932   4.081   0.105 -1.6986  0.4767  1.1635
 2209SOL    HW2 6684   1.982   4.019   0.234 -0.5236 -0.6620  0.1935
 2210SOL     OW 6685   2.061   4.513   1.156 -0.0132 -0.1481  0.3271
 2210SOL    HW1 6686   1.970   4.500   1.181  0.2714 -0.5338  1.2281
 2210SOL    HW2 6687   2.085   4.597   1.195 -0.2372  0.3844 -0.6739
 2211SOL     OW 6688   4.581   3.549   3.403 -0.0423  0.1810 -0.7228
 2211SOL    HW1 6689   4.599   3.631   3.448 -0.9999 -0.8476  1.7406
 2211SOL    HW2 6690   4.546   3.575   3.318 -1.9197  2.3882  0.6183
 2212SOL     OW 6691   0.419   2.526   1.120  0.2989  0.1319  0.0436
 2212SOL    HW1 6692   0.403   2.553   1.030 -1.6912 -0.7664  0.0712
 2212SOL    HW2 6693   0.365   2.586   1.172  3.3698  2.3703  0.9534
 2213SOL     OW 6694   1.719   4.846   1.136 -0.1309  0.2827  0.1492
 2213SOL    HW1 6695   1.802   4.833   1.089 -0.9942  0.5047 -1.5168
 2213SOL    HW2 6696   1.686   4.757   1.150  0.2073  0.2078  0.4775
 2214SOL     OW 6697   2.937   3.112   2.936  0.7185  0.3856 -0.3102
 2214SOL    HW1 6698   2.907   3.110   3.027  1.2831  1.7292 -0.0726
 2214SOL    HW2 6699   2.970   3.023   2.920  0.6524  0.1425  0.8064
 2215SOL     OW 6700   1.050   0.499   0.011  0.3072  0.1377 -0.1365
 2215SOL    HW1 6701   0.962   0.481  -0.023  0.1843  1.2182 -0.4261
 2215SOL    HW2 6702   1.048   0.464   0.100 -0.6099  0.6154  0.0479
 2216SOL     OW 6703   3.721   1.918   2.813 -0.3001 -0.1579 -0.0696
 2216SOL    HW1 6704   3.811   1.942   2.790 -0.2465 -0.1277  0.1682
 2216SOL    HW2 6705   3.689   1.870   2.736 -0.4526  0.7637 -0.5973
 2217SOL     OW 6706   2.339   1.635   1.877  0.2428 -0.5314 -0.1333
 2217SOL    HW1 6707   2.359   1.542   1.864  0.5673 -0.2113 -2.1897
 2217SOL    HW2 6708   2.335   1.671   1.789 -0.1878  1.3618  0.6246
 2218SOL     OW 6709   2.118   4.604   3.932  0.5219 -0.0764 -0.0691
 2218SOL    HW1 6710   2.103   4.516   3.968 -1.5515  0.5576  0.7691
 2218SOL    HW2 6711   2.102   4.663   4.006  1.1773  1.0450 -0.8041
 2219SOL     OW 6712   1.757   2.955   1.697  0.3622  0.2084  0.2593
 2219SOL    HW1 6713   1.781   3.045   1.675  1.4015  0.0766  0.8365
 2219SOL    HW2 6714   1.751   2.911   1.612 -1.8670  1.2006 -0.1761
 2220SOL     OW 6715   0.297   0.214   3.949 -0.2151  0.2274 -0.1045
 2220SOL    HW1 6716   0.250   0.253   4.023 -0.1844 -1.7032  0.9899
 2220SOL    HW2 6717   0.354   0.285   3.917 -0.7267  1.3049  1.2857
 2221SOL     OW 6718   4.576   4.761   4.150  0.4827  0.5488 -0.6436
 2221SOL    HW1 6719   4.671   4.759   4.140  0.5992  0.0728  0.4587
 2221SOL    HW2 6720   4.550   4.669   4.149  0.4276  0.4568  2.3914
 2222SOL     OW 6721   1.262   0.971   4.027  0.0213  0.2729 -0.2088
 2222SOL    HW1 6722   1.261   0.885   3.986  0.1989 -0.0534  0.4524
 2222SOL    HW2 6723   1.227   1.030   3.961  0.6481 -0.1788 -0.9565
 2223SOL     OW 6724   3.698   2.278   1.875 -0.1325  0.1370 -0.6737
 2223SOL    HW1 6725   3.701   2.215   1.947 -0.2681  0.2806 -0.5410
 2223SOL    HW2 6726   3.605   2.285   1.853  0.1233 -2.1991 -2.8975
 2224SOL     OW 6727   2.729   0.743   4.562 -0.1186 -0.0521 -0.0854
 2224SOL    HW1 6728   2.750   0.662   4.608  0.1639 -1.1455 -2.0548
 2224SOL    HW2 6729   2.646   0.724   4.517  0.4964  0.3490 -1.4375
 2225SOL     OW 6730   3.709   0.468   2.691  0.2256  0.5626  0.2756
 2225SOL    HW1 6731   3.635   0.429   2.737 -0.7941 -0.3729 -2.0214
 2225SOL    HW2 6732   3.785   0.421   2.726 -0.6353 -1.0285  0.1179
 2226SOL     OW 6733   1.183   4.747   3.000  0.2455  0.3514  0.2119
 2226SOL    HW1 6734   1.249   4.732   2.933  1.9256  1.8091  1.4441
 2226SOL    HW2 6735   1.102   4.762   2.952  1.4664  1.6804 -1.5235
 2227SOL     OW 6736   0.153   4.776   4.620  0.4030  0.3240  0.0022
 2227SOL    HW1 6737   0.166   4.846   4.556  0.9114 -0.0464 -0.3112
 2227SOL    HW2 6738   0.059   4.778   4.639 -0.0585 -0.4780 -1.8779
 2228SOL     OW 6739   0.865   3.335   3.764  0.0108 -0.0107  0.2610
 2228SOL    HW1 6740   0.914   3.366   3.840 -0.3727  1.4709 -0.0730
 2228SOL    HW2 6741   0.817   3.258   3.796 -0.6773  0.9924  1.7100
 2229SOL     OW 6742   0.150   1.621   0.778 -0.1220 -0.3555  0.7211
 2229SOL    HW1 6743   0.102   1.540   0.762 -1.0473  0.4840 -1.0590
 2229SOL    HW2 6744   0.190   1.642   0.693  2.3468 -0.3311  1.8183
 2230SOL     OW 6745   1.353   3.755   1.880  0.0466  0.0460  0.4114
 2230SOL    HW1 6746   1.286   3.756   1.813  0.5978 -1.7984 -0.2146
 2230SOL    HW2 6747   1.409   3.681   1.858  1.1829  0.3684  1.9953
 2231SOL     OW 6748   3.592   4.964   3.301 -0.0461  0.5361  0.1595
 2231SOL    HW1 6749   3.579   4.992   3.210  0.2146 -1.3735 -0.5104
 2231SOL    HW2 6750   3.679   4.923   3.301 -0.6751 -0.8573  0.8873
 2232SOL     OW 6751   4.664   3.128   1.875  0.4682  0.0562 -0.2107
 2232SOL    HW1 6752   4.670   3.107   1.968 -1.7582  1.4966  0.3465
 2232SOL    HW2 6753   4.679   3.222   1.871 -0.7148  0.2368 -1.1001
 2233SOL     OW 6754   4.001   2.832   1.368 -0.6150  0.1872  0.3307
 2233SOL    HW1 6755   4.035   2.920   1.354 -1.1985  0.3348 -0.2178
 2233SOL    HW2 6756   4.035   2.781   1.295  1.6576 -0.6456  1.8758
 2234SOL     OW 6757   4.216   1.789   3.482 -0.4346 -0.3714  0.3562
 2234SOL    HW1 6758   4.154   1.723   3.450  1.5940 -2.4730  0.4762
 2234SOL    HW2 6759   4.254   1.749   3.560 -0.0081  1.5266  1.1684
 2235SOL     OW 6760   2.928   0.555   3.918  0.3508 -0.7309 -0.0332
 2235SOL    HW1 6761   2.967   0.582   4.001 -0.0711 -2.9325  0.9527
 2235SOL    HW2 6762   2.976   0.605   3.851  1.5174  0.1837  1.4302
 2236SOL     OW 6763   3.761   3.791   1.722 -0.3575  0.1151 -0.4410
 2236SOL    HW1 6764   3.792   3.846   1.651  1.4563 -0.5457 -0.2047
 2236SOL    HW2 6765   3.670   3.818   1.736 -0.0766  1.7256 -1.5531
 2237SOL     OW 6766   1.186   0.634   1.115 -0.0163  0.1198  0.4501
 2237SOL    HW1 6767   1.275   0.599   1.106  0.8888  2.4043 -0.1016
 2237SOL    HW2 6768   1.172   0.686   1.036 -1.2728  1.0126  1.2112
 2238SOL     OW 6769   4.855   2.767   2.803 -0.2139  0.2683  0.4672
 2238SOL    HW1 6770   4.942   2.752   2.768  0.1285 -1.2163  1.8482
 2238SOL    HW2 6771   4.796   2.748   2.729  0.5625 -0.6435  0.0595
 2239SOL     OW 6772   3.376   2.574   4.700 -0.6906  0.3275  0.1711
 2239SOL    HW1 6773   3.417   2.520   4.632 -0.6417  0.3780  0.1602
 2239SOL    HW2 6774   3.295   2.528   4.722 -1.9621  1.5029 -1.6390
 2240SOL     OW 6775   2.594   0.737   2.641 -0.5387 -0.5254 -0.5462
 2240SOL    HW1 6776   2.561   0.702   2.724 -0.2586 -0.2883 -0.3337
 2240SOL    HW2 6777   2.519   0.782   2.602 -0.0711  1.4891  0.7267
 2241SOL     OW 6778   2.180   2.962   3.334 -0.4701 -0.0175  0.5261
 2241SOL    HW1 6779   2.214   3.002   3.414 -1.9807  0.2572  1.0669
 2241SOL    HW2 6780   2.143   2.879   3.364  0.6238 -0.8064 -0.2215
 2242SOL     OW 6781   2.041   2.832   0.287  0.0004 -0.3588 -0.0922
 2242SOL    HW1 6782   1.967   2.817   0.228 -0.0353  1.1070 -0.4649
 2242SOL    HW2 6783   2.039   2.758   0.348 -1.8796 -0.2596  0.0143
 2243SOL     OW 6784   2.148   4.845   1.749  0.0464  0.3962  0.5573
 2243SOL    HW1 6785   2.191   4.921   1.789  0.5071  0.5596 -0.2399
 2243SOL    HW2 6786   2.149   4.779   1.819  3.1375 -0.2105  0.1083
 2244SOL     OW 6787   0.821   3.410   0.934 -0.8119 -0.5955 -0.0211
 2244SOL    HW1 6788   0.860   3.350   0.999 -1.1589  0.9232  1.6739
 2244SOL    HW2 6789   0.880   3.405   0.859 -0.2124 -2.1922  0.5021
 2245SOL     OW 6790   0.623   3.520   2.705  0.0332 -0.4796 -0.1318
 2245SOL    HW1 6791   0.712   3.544   2.731  0.5591 -1.3873 -1.0026
 2245SOL    HW2 6792   0.588   3.598   2.663  1.4039 -0.8830 -2.1832
 2246SOL     OW 6793   3.471   4.635   1.564 -0.3400 -0.3888  0.0708
 2246SOL    HW1 6794   3.430   4.720   1.549  1.1435  0.8313  2.3422
 2246SOL    HW2 6795   3.402   4.582   1.604 -0.9820  0.0902 -0.3701
 2247SOL     OW 6796   2.548   1.905   4.343 -0.0333 -0.0970 -0.2706
 2247SOL    HW1 6797   2.491   1.868   4.275  0.2768 -0.2609 -0.4445
 2247SOL    HW2 6798   2.576   1.830   4.394  0.3500 -0.0665 -0.4332
 2248SOL     OW 6799   2.740   4.110   1.065  0.1765 -0.5427 -0.0993
 2248SOL    HW1 6800   2.816   4.063   1.099  0.9976  1.0626  0.3929
 2248SOL    HW2 6801   2.725   4.073   0.978  1.4450 -0.9731 -0.1449
 2249SOL     OW 6802   3.820   1.299   3.114 -0.4581 -0.1534  0.1288
 2249SOL    HW1 6803   3.732   1.322   3.086 -0.9559  1.2449  2.4911
 2249SOL    HW2 6804   3.871   1.295   3.034 -1.9712  2.2721 -1.0751
 2250SOL     OW 6805   4.046   4.462   1.645  0.0938  0.1980 -0.3294
 2250SOL    HW1 6806   4.123   4.456   1.702  0.0345 -1.0280 -0.3602
 2250SOL    HW2 6807   4.033   4.373   1.612 -0.7557  0.5929 -1.1026
 2251SOL     OW 6808   3.401   1.959   3.888 -0.4583  0.4139 -0.4961
 2251SOL    HW1 6809   3.399   1.996   3.800  2.1052 -0.1327 -0.8510
 2251SOL    HW2 6810   3.430   2.032   3.943 -0.5210  0.3420 -0.3684
 2252SOL     OW 6811   1.976   1.419   0.393  0.7758  0.4698  0.1578
 2252SOL    HW1 6812   2.038   1.441   0.463  0.7515  1.0967 -0.0112
 2252SOL    HW2 6813   1.961   1.325   0.403  1.2083  0.4474  0.6423
 2253SOL     OW 6814   4.269   4.536   0.453  1.0200  0.1458 -0.1297
 2253SOL    HW1 6815   4.354   4.527   0.410  0.9423  2.2854 -0.8485
 2253SOL    HW2 6816   4.205   4.525   0.383  0.8409  1.8093 -0.2649
 2254SOL     OW 6817   4.930   1.474   4.319  0.2247 -0.1367 -0.1450
 2254SOL    HW1 6818   4.972   1.553   4.354  1.4731 -1.6851  2.1610
 2254SOL    HW2 6819   4.912   1.420   4.397 -0.9043 -1.9915 -1.5936
 2255SOL     OW 6820   1.454   3.655   0.686 -0.2003  0.0512 -0.2994
 2255SOL    HW1 6821   1.367   3.616   0.689  0.1240 -0.7227 -0.4789
 2255SOL    HW2 6822   1.471   3.669   0.593  0.9518 -2.4355 -0.5539
 2256SOL     OW 6823   4.310   1.430   1.663  0.0115  0.8796 -0.0204
 2256SOL    HW1 6824   4.260   1.468   1.590  0.1428  1.7558  0.3265
 2256SOL    HW2 6825   4.245   1.412   1.730 -0.0322  0.6230 -0.1308
 2257SOL     OW 6826   0.365   3.967   1.609 -0.0601 -0.2406 -0.8287
 2257SOL    HW1 6827   0.454   3.932   1.602  0.4552  1.1016 -1.3318
 2257SOL    HW2 6828   0.323   3.912   1.675  2.1790  1.0902  1.9458
 2258SOL     OW 6829   1.787   3.554   0.476 -0.3096 -0.0090 -0.2496
 2258SOL    HW1 6830   1.794   3.598   0.391  0.8732  1.2096  0.4492
 2258SOL    HW2 6831   1.709   3.593   0.516  0.3424  0.9833  0.0832
 2259SOL     OW 6832   2.347   1.329   0.978  0.3708 -0.3522 -0.0967
 2259SOL    HW1 6833   2.338   1.416   0.941 -0.0190 -0.1043  0.5664
 2259SOL    HW2 6834   2.425   1.334   1.033  0.9196 -0.7059 -0.8201
 2260SOL     OW 6835   3.324   1.745   1.907  0.6822 -0.4046 -0.5952
 2260SOL    HW1 6836   3.255   1.797   1.948  0.6438 -2.2170  1.8772
 2260SOL    HW2 6837   3.346   1.793   1.827 -1.4332  1.7225 -0.0181
 2261SOL     OW 6838   0.216   4.153   4.491  0.7533  0.4090  0.3336
 2261SOL    HW1 6839   0.281   4.180   4.425 -2.9523 -1.0530 -4.5243
 2261SOL    HW2 6840   0.154   4.225   4.495 -0.5093 -0.6089 -0.0441
 2262SOL     OW 6841   0.307   0.349   3.161 -0.0476  0.0921  0.1413
 2262SOL    HW1 6842   0.225   0.326   3.206  0.8625 -0.3762  1.6505
 2262SOL    HW2 6843   0.342   0.422   3.212  1.0387 -0.4731  0.2328
 2263SOL     OW 6844   4.627   3.241   1.424  0.0973 -0.0694 -0.3812
 2263SOL    HW1 6845   4.707   3.292   1.432  0.7921 -1.1038 -0.5465
 2263SOL    HW2 6846   4.593   3.235   1.513  1.4551 -1.5527  0.0798
 2264SOL     OW 6847   0.467   0.826   4.149 -0.9617 -0.0287  0.0901
 2264SOL    HW1 6848   0.409   0.800   4.220 -0.7538 -0.2919  0.1697
 2264SOL    HW2 6849   0.460   0.921   4.145  0.7564  0.2585  2.0131
 2265SOL     OW 6850   4.326   3.311   4.269 -0.4600  0.0723  0.1496
 2265SOL    HW1 6851   4.300   3.278   4.183  0.1830 -1.3738  0.4789
 2265SOL    HW2 6852   4.244   3.333   4.312 -0.7624  1.4465 -1.0432
 2266SOL     OW 6853   4.665   2.684   3.317 -0.3586 -0.3663 -0.3635
 2266SOL    HW1 6854   4.709   2.757   3.361  0.7537 -1.1496 -0.1390
 2266SOL    HW2 6855   4.709   2.678   3.232  0.8450 -1.8997  0.3134
 2267SOL     OW 6856   4.895   2.024   4.592  0.1923  0.3549  0.5235
 2267SOL    HW1 6857   4.830   2.026   4.662  1.7905 -1.9183  2.2332
 2267SOL    HW2 6858   4.930   2.113   4.588 -1.8531  1.2087  0.6406
 2268SOL     OW 6859   4.466   3.194   0.799 -0.0104 -1.3011 -0.3460
 2268SOL    HW1 6860   4.524   3.135   0.752  0.0367 -1.3971 -0.1692
 2268SOL    HW2 6861   4.381   3.186   0.755  0.5157  0.1290 -1.7084
 2269SOL     OW 6862   3.339   2.791   1.719  0.6682 -0.4083 -0.0724
 2269SOL    HW1 6863   3.332   2.795   1.624  2.6318  1.5198 -0.2015
 2269SOL    HW2 6864   3.387   2.710   1.736 -0.5717 -1.2850 -0.6228
 2270SOL     OW 6865   4.037   1.832   3.015 -0.0312  0.3751 -0.3276
 2270SOL    HW1 6866   4.056   1.877   3.097 -1.0889 -0.3859  0.3529
 2270SOL    HW2 6867   4.040   1.739   3.036 -1.7509  0.1771 -0.7780
 2271SOL     OW 6868   4.833   4.587   2.836  0.0094 -0.2924 -0.0229
 2271SOL    HW1 6869   4.888   4.608   2.761 -0.0019 -0.0880  0.0259
 2271SOL    HW2 6870   4.796   4.671   2.863  3.1733  0.4734  2.7535
 2272SOL     OW 6871   3.987   3.377   1.338 -0.5086  0.0815  0.6624
 2272SOL    HW1 6872   4.003   3.459   1.291 -2.6124  0.2178  0.0926
 2272SOL    HW2 6873   3.916   3.335   1.290 -1.2956 -0.8022  2.4894
 2273SOL     OW 6874   0.755   4.419   2.007 -0.0999  0.1310 -0.6720
 2273SOL    HW1 6875   0.702   4.399   2.084  0.2108  0.7259 -0.3017
 2273SOL    HW2 6876   0.771   4.513   2.012  1.2955 -0.0923 -0.5873
 2274SOL     OW 6877   0.928   1.637   4.450 -0.2127  0.4989 -0.0615
 2274SOL    HW1 6878   0.999   1.575   4.465  0.8374  1.6672  0.0420
 2274SOL    HW2 6879   0.914   1.679   4.535 -2.2884 -0.9400  0.3734
 2275SOL     OW 6880   1.939   0.599   3.425 -1.0123 -0.4288 -0.6650
 2275SOL    HW1 6881   2.001   0.534   3.393  0.2817  0.6049 -0.3689
 2275SOL    HW2 6882   1.868   0.548   3.465 -0.9821 -1.6628 -2.1083
 2276SOL     OW 6883   2.182   3.053   4.940 -0.3772  0.0011 -0.3993
 2276SOL    HW1 6884   2.264   3.029   4.984 -0.1414  3.1868  1.1760
 2276SOL    HW2 6885   2.205   3.054   4.847  0.8950 -0.7865 -0.1244
 2277SOL     OW 6886   0.699   1.882   2.897  0.0583 -0.3154 -0.4387
 2277SOL    HW1 6887   0.633   1.949   2.879  0.7037  0.0687 -1.4654
 2277SOL    HW2 6888   0.782   1.929   2.896  0.6580 -1.2936 -2.4316
 2278SOL     OW 6889   3.440   0.554   1.453  0.1160 -0.3357 -0.1473
 2278SOL    HW1 6890   3.375   0.490   1.424 -0.7261  0.7542 -0.7264
 2278SOL    HW2 6891   3.508   0.551   1.386 -1.2068  1.2474 -1.6284
 2279SOL     OW 6892   3.803   3.706   0.965 -0.3055  0.5293 -0.0317
 2279SOL    HW1 6893   3.887   3.693   0.922 -0.6113 -1.0086 -0.2400
 2279SOL    HW2 6894   3.738   3.684   0.898 -0.8389  0.6518  0.4356
 2280SOL     OW 6895   1.051   0.041   0.803  0.0524  0.0747 -0.4780
 2280SOL    HW1 6896   0.985   0.021   0.736  0.3417 -1.2030 -0.4064
 2280SOL    HW2 6897   1.134   0.043   0.755  0.1224  0.3731 -0.3479
 2281SOL     OW 6898   4.687   1.855   3.117  0.4204  0.0938 -0.8155
 2281SOL    HW1 6899   4.754   1.824   3.178 -0.1263  1.1840  0.4035
 2281SOL    HW2 6900   4.724   1.842   3.030  1.0360 -1.9605 -0.2828
 2282SOL     OW 6901   2.718   1.005   4.260  0.6614  0.2991 -0.3879
 2282SOL    HW1 6902   2.636   0.985   4.306  1.6031 -0.3364  1.0626
 2282SOL    HW2 6903   2.690   1.053   4.182 -1.0226  1.0710  0.6397
 2283SOL     OW 6904   0.668   0.202   2.257 -0.1551 -0.0909 -0.2599
 2283SOL    HW1 6905   0.695   0.235   2.342 -0.6629 -0.3546  0.0077
 2283SOL    HW2 6906   0.617   0.273   2.218 -0.7942 -0.3466  0.0922
 2284SOL     OW 6907   0.028   2.474   2.709  0.1429 -0.1904  0.1327
 2284SOL    HW1 6908   0.027   2.439   2.798 -0.9636  0.9971  0.6125
 2284SOL    HW2 6909  -0.019   2.408   2.657  3.4629 -2.4759 -0.2991
 2285SOL     OW 6910   1.591   2.773   2.955  0.2804 -0.3096  0.1027
 2285SOL    HW1 6911   1.598   2.694   2.902  0.2217  0.1688 -0.6353
 2285SOL    HW2 6912   1.675   2.818   2.940 -0.7880  1.1890 -1.8275
 2286SOL     OW 6913   1.593   0.703   1.029  0.5630  0.5099  0.0598
 2286SOL    HW1 6914   1.539   0.638   1.074  0.5483 -0.4998 -1.3663
 2286SOL    HW2 6915   1.532   0.772   1.005  0.0915 -0.1337 -0.6160
 2287SOL     OW 6916   0.109   3.227   3.939  0.3000  0.5987  0.1349
 2287SOL    HW1 6917   0.115   3.175   3.860  0.1881 -0.0499  0.5500
 2287SOL    HW2 6918   0.015   3.236   3.955  0.3285  0.3636  0.4333
 2288SOL     OW 6919   0.345   0.545   3.374 -0.2212  0.0074 -0.1708
 2288SOL    HW1 6920   0.399   0.539   3.453  1.1255 -0.5036 -1.0850
 2288SOL    HW2 6921   0.317   0.636   3.370  1.7117  0.6469 -0.3407
 2289SOL     OW 6922   4.353   2.831   1.410 -0.4136 -0.1572 -0.3024
 2289SOL    HW1 6923   4.316   2.865   1.492  1.8103 -0.1672  0.7702
 2289SOL    HW2 6924   4.305   2.749   1.395  0.0922 -0.8864  1.7859
 2290SOL     OW 6925   1.655   0.530   0.700  0.4075  0.2088  0.4660
 2290SOL    HW1 6926   1.707   0.581   0.761  1.6697  1.8051 -1.8023
 2290SOL    HW2 6927   1.714   0.459   0.672  1.1869  1.5544 -1.5004
 2291SOL     OW 6928   4.966   4.185   4.753  0.0066  0.7021  0.5555
 2291SOL    HW1 6929   4.971   4.239   4.674  2.4979  0.8206  0.7390
 2291SOL    HW2 6930   4.941   4.098   4.721  1.3792  0.6440 -0.4272
 2292SOL     OW 6931   4.023   4.375   4.816  0.3835  0.2378 -0.7384
 2292SOL    HW1 6932   3.948   4.315   4.805  0.7242 -0.2008 -0.7031
 2292SOL    HW2 6933   4.072   4.338   4.890  1.9141 -0.8411 -2.2063
 2293SOL     OW 6934   1.422   4.825   1.882 -0.5441 -0.1774  0.1404
 2293SOL    HW1 6935   1.368   4.845   1.805 -1.7047  0.9130  1.1926
 2293SOL    HW2 6936   1.497   4.884   1.875  0.0774 -1.0381 -0.8333
 2294SOL     OW 6937   0.264   4.305   4.828  0.0592 -0.1559  0.9518
 2294SOL    HW1 6938   0.285   4.214   4.809  0.9780  0.2791 -0.2503
 2294SOL    HW2 6939   0.187   4.323   4.775 -2.2283 -1.1210  3.6961
 2295SOL     OW 6940   2.542   4.164   4.314  0.2863  0.6990  0.4223
 2295SOL    HW1 6941   2.535   4.075   4.279  0.6664  0.6222  0.5350
 2295SOL    HW2 6942   2.605   4.156   4.386  1.2895  1.2835 -0.3579
 2296SOL     OW 6943   0.927   3.003   4.644  0.2823 -0.1234  0.1450
 2296SOL    HW1 6944   0.995   3.066   4.619 -2.4549  2.0832 -2.5749
 2296SOL    HW2 6945   0.954   2.921   4.601  1.4203  0.5768 -0.5449
 2297SOL     OW 6946   3.672   1.808   2.372 -0.4537 -0.6338 -0.0101
 2297SOL    HW1 6947   3.659   1.725   2.325 -0.0817 -0.2626 -0.7997
 2297SOL    HW2 6948   3.643   1.790   2.461  0.5250 -1.8931  0.0779
 2298SOL     OW 6949   4.486   3.230   3.640 -0.0587  0.0426  0.4740
 2298SOL    HW1 6950   4.555   3.249   3.577  1.2647 -0.1736  1.8007
 2298SOL    HW2 6951   4.411   3.282   3.611  1.0007  1.1240 -0.3861
 2299SOL     OW 6952   2.757   1.334   0.526  0.1943  0.2673  0.8294
 2299SOL    HW1 6953   2.737   1.272   0.456  0.9013 -0.7285  1.4807
 2299SOL    HW2 6954   2.798   1.281   0.594  2.6025  1.7609  0.6398
 2300SOL     OW 6955   3.332   2.234   4.611  0.2973  0.2744 -0.3177
 2300SOL    HW1 6956   3.330   2.255   4.517  3.1945  0.0956 -0.5131
 2300SOL    HW2 6957   3.323   2.139   4.614 -0.0588  0.3042 -0.3877
 2301SOL     OW 6958   2.735   2.553   1.442  0.0056  0.0160 -0.5463
 2301SOL    HW1 6959   2.684   2.576   1.519  0.2635 -0.9659 -0.0667
 2301SOL    HW2 6960   2.813   2.608   1.447 -0.4816  0.7297 -0.6951
 2302SOL     OW 6961   3.343   2.901   2.085 -0.2462  0.0327 -0.4042
 2302SOL    HW1 6962   3.384   2.988   2.088 -0.4624  0.2895 -2.7545
 2302SOL    HW2 6963   3.362   2.862   2.170  0.6397  2.0312  0.3697
 2303SOL     OW 6964   4.152   4.013   0.479  0.1088 -0.1164  0.4959
 2303SOL    HW1 6965   4.137   3.921   0.455  2.2235 -0.7918  1.4843
 2303SOL    HW2 6966   4.083   4.061   0.434 -0.4179 -2.0731 -0.9335
 2304SOL     OW 6967   4.638   3.551   0.515 -0.1383  0.1277 -0.3419
 2304SOL    HW1 6968   4.732   3.537   0.508  0.1318  1.4623  0.2250
 2304SOL    HW2 6969   4.616   3.516   0.602  0.5424  2.9569  1.0947
 2305SOL     OW 6970   3.136   0.126   3.775  0.0669 -0.0854 -0.8404
 2305SOL    HW1 6971   3.168   0.039   3.753 -0.1218 -0.1159 -0.9971
 2305SOL    HW2 6972   3.130   0.126   3.871  1.5169  0.2665 -0.7238
 2306SOL     OW 6973   2.108   1.043   4.211  0.1437  0.5474  0.4028
 2306SOL    HW1 6974   2.016   1.019   4.214  0.2125  0.2481  0.1481
 2306SOL    HW2 6975   2.132   1.037   4.118  0.0198  2.1727  0.2494
 2307SOL     OW 6976   1.066   3.197   1.713  0.2304 -0.2998 -0.0097
 2307SOL    HW1 6977   1.124   3.209   1.638 -0.3916  0.8595 -0.3285
 2307SOL    HW2 6978   1.105   3.125   1.762  3.8083  2.3892  1.5394
 2308SOL     OW 6979   4.841   2.893   4.238 -0.0212 -0.0262  0.3259
 2308SOL    HW1 6980   4.802   2.848   4.163  1.2862 -1.1341  0.2587
 2308SOL    HW2 6981   4.922   2.931   4.204 -0.2378  0.8811  0.8071
 2309SOL     OW 6982   3.412   3.169   2.903 -0.5443 -0.4205 -0.2467
 2309SOL    HW1 6983   3.331   3.192   2.858 -1.6060 -0.8555  1.3174
 2309SOL    HW2 6984   3.403   3.076   2.923 -0.1386 -0.2449  0.8484
 2310SOL     OW 6985   2.731   1.448   3.320  0.3113  0.5408  0.4179
 2310SOL    HW1 6986   2.816   1.411   3.344 -0.3932 -0.6851  1.0941
 2310SOL    HW2 6987   2.670   1.411   3.383 -0.6978  1.6207  0.1062
 2311SOL     OW 6988   4.652   3.721   2.385 -1.3816  0.4978  0.2060
 2311SOL    HW1 6989   4.669   3.804   2.429 -1.3008  0.3641  0.4356
 2311SOL    HW2 6990   4.558   3.707   2.397 -1.5223  0.8858 -0.4283
 2312SOL     OW 6991   4.401   4.700   1.525  0.5217 -0.3828 -0.3270
 2312SOL    HW1 6992   4.370   4.633   1.466 -2.4161  0.6025 -0.0564
 2312SOL    HW2 6993   4.361   4.679   1.609 -2.2884  2.7022 -0.6946
 2313SOL     OW 6994   3.216   1.603   0.523 -0.5147  0.2142 -0.3095
 2313SOL    HW1 6995   3.192   1.692   0.500  1.5103  1.2410  1.2200
 2313SOL    HW2 6996   3.178   1.590   0.611  0.1980  0.0076 -0.0275
 2314SOL     OW 6997   4.320   2.051   3.444 -0.2099  0.2094  0.2881
 2314SOL    HW1 6998   4.311   1.968   3.489  0.5998  0.8298  1.6452
 2314SOL    HW2 6999   4.400   2.042   3.392 -1.2190 -0.5552 -1.2184
 2315SOL     OW 7000   3.836   4.354   1.335 -0.1961  0.2528 -0.1100
 2315SOL    HW1 7001   3.844   4.435   1.285 -0.2046 -0.2203 -0.8945
 2315SOL    HW2 7002   3.785   4.377   1.412  1.2268  1.3822  0.5458
 2316SOL     OW 7003   1.248  -0.008   4.803  0.2734  0.3299 -0.4969
 2316SOL    HW1 7004   1.249   0.087   4.791 -0.1618  0.4883  0.6466
 2316SOL    HW2 7005   1.159  -0.028   4.831 -0.0157 -0.5911 -1.9246
 2317SOL     OW 7006   2.651   3.177   4.548 -0.4470 -0.0020  0.0627
 2317SOL    HW1 7007   2.579   3.116   4.559 -1.6403  1.2980 -0.1788
 2317SOL    HW2 7008   2.618   3.242   4.485  1.5892 -0.3302 -1.4623
 2318SOL     OW 7009   0.346   0.500   0.198  0.2117 -0.5376 -0.4695
 2318SOL    HW1 7010   0.376   0.576   0.249  0.4346 -0.7797 -0.2358
 2318SOL    HW2 7011   0.251   0.501   0.207  0.2951 -1.0224  0.6032
 2319SOL     OW 7012   2.413   4.604   1.636 -0.2475  0.3857  0.0827
 2319SOL    HW1 7013   2.460   4.655   1.570 -0.3474  0.2856 -0.0649
 2319SOL    HW2 7014   2.371   4.533   1.588  0.2753 -0.1148  0.3568
 2320SOL     OW 7015   1.858   2.612   3.247  0.3366 -0.4771 -0.5407
 2320SOL    HW1 7016   1.862   2.532   3.300 -0.2188 -0.2446 -0.1348
 2320SOL    HW2 7017   1.764   2.627   3.235  0.3624  0.9965  0.7759
 2321SOL     OW 7018   0.039   2.256   3.757 -0.5670 -0.0015  0.9310
 2321SOL    HW1 7019   0.123   2.293   3.728 -0.2462 -1.2667  0.1455
 2321SOL    HW2 7020  -0.024   2.326   3.744  0.0144  0.2805 -0.5392
 2322SOL     OW 7021   1.440   3.881   2.521 -0.6826  0.0370 -0.0937
 2322SOL    HW1 7022   1.451   3.807   2.581  0.5266  0.0676 -0.2601
 2322SOL    HW2 7023   1.446   3.842   2.434  0.0090  0.3309 -0.1826
 2323SOL     OW 7024   1.752   3.661   1.299 -0.5009 -0.0928  0.7255
 2323SOL    HW1 7025   1.825   3.712   1.333 -0.6769  0.6338  0.0566
 2323SOL    HW2 7026   1.718   3.714   1.226 -0.9502 -0.9718  0.2805
 2324SOL     OW 7027   0.828   0.318   3.562 -0.6395 -0.2805  0.2292
 2324SOL    HW1 7028   0.876   0.315   3.479  0.8749 -0.9042  1.0935
 2324SOL    HW2 7029   0.834   0.410   3.589  1.6239 -0.6429  1.1606
 2325SOL     OW 7030   0.422   3.641   0.161  0.4232 -0.1079  0.0326
 2325SOL    HW1 7031   0.440   3.548   0.169  0.4975 -0.1505 -0.5955
 2325SOL    HW2 7032   0.327   3.646   0.146  0.2977 -0.0340  0.8223
 2326SOL     OW 7033   2.108   2.088   4.169 -0.2174  0.4840  0.5503
 2326SOL    HW1 7034   2.073   2.131   4.091  1.0190  1.8317  0.6764
 2326SOL    HW2 7035   2.043   2.105   4.237  0.0587  1.8798  0.4951
 2327SOL     OW 7036   3.025   0.673   3.037  0.1251  0.1943 -0.0813
 2327SOL    HW1 7037   2.970   0.720   3.099  0.9960  0.0026  0.8845
 2327SOL    HW2 7038   3.073   0.741   2.990  0.7260  0.3131  0.6838
 2328SOL     OW 7039   1.970   3.036   2.275  0.5099 -0.2271 -0.3342
 2328SOL    HW1 7040   2.001   3.122   2.247  0.1337 -0.5178 -1.7583
 2328SOL    HW2 7041   1.994   3.030   2.367 -0.8728  2.0653  0.2624
 2329SOL     OW 7042   4.085   4.936   3.277  0.1598 -0.5395 -0.1687
 2329SOL    HW1 7043   4.135   5.013   3.251  0.5894 -0.9268 -0.5016
 2329SOL    HW2 7044   4.137   4.861   3.247  0.2564 -0.9879  1.0392
 2330SOL     OW 7045   2.486   0.827   0.725 -0.2922  0.3161  0.1036
 2330SOL    HW1 7046   2.577   0.857   0.732  0.0366 -0.7914  1.0330
 2330SOL    HW2 7047   2.435   0.906   0.711  0.8644  0.9056 -0.9309
 2331SOL     OW 7048   0.240   4.038   1.985 -0.2422 -0.2429  0.0467
 2331SOL    HW1 7049   0.166   4.086   1.949 -0.8924 -1.7266 -0.6938
 2331SOL    HW2 7050   0.210   3.947   1.987  1.1983 -0.7222  0.6981
 2332SOL     OW 7051   0.820   1.107   4.009  0.2174  0.4241  0.0326
 2332SOL    HW1 7052   0.854   1.071   3.927 -2.7165 -5.1158  0.7455
 2332SOL    HW2 7053   0.869   1.062   4.077 -1.5959 -0.0194  1.1199
 2333SOL     OW 7054   0.763   2.655   1.881 -0.3660 -0.0057  0.5557
 2333SOL    HW1 7055   0.685   2.711   1.889 -0.4012 -0.1524  1.3529
 2333SOL    HW2 7056   0.836   2.717   1.878 -0.4598  0.1122  0.6649
 2334SOL     OW 7057   1.451   2.428   0.758  0.0268  0.1101 -0.6947
 2334SOL    HW1 7058   1.444   2.365   0.687  0.3209  0.8751 -1.4255
 2334SOL    HW2 7059   1.533   2.475   0.741 -0.2004  0.7143 -0.1999
 2335SOL     OW 7060   4.591   4.250   4.684 -0.3763 -0.2031  0.0537
 2335SOL    HW1 7061   4.620   4.304   4.757 -2.1684 -0.8241  1.2990
 2335SOL    HW2 7062   4.617   4.161   4.708 -2.5941 -0.6937  0.9342
 2336SOL     OW 7063   1.555   2.359   1.980  0.3938 -0.3311 -0.2242
 2336SOL    HW1 7064   1.593   2.320   1.902  0.9001  0.2637 -0.2798
 2336SOL    HW2 7065   1.462   2.370   1.959  1.1673  3.5391 -2.3387
 2337SOL     OW 7066   2.295   3.566   0.777  0.3025 -0.1874  0.1781
 2337SOL    HW1 7067   2.200   3.566   0.765  0.4931  0.1624 -1.6473
 2337SOL    HW2 7068   2.319   3.658   0.782  0.6179 -0.2401 -0.2314
 2338SOL     OW 7069   0.841   1.719   2.284  0.1304 -0.0544 -0.1820
 2338SOL    HW1 7070   0.851   1.748   2.193  1.0545 -1.6364 -0.6283
 2338SOL    HW2 7071   0.777   1.779   2.322  0.2174  1.0409 -1.6907
 2339SOL     OW 7072   1.104   2.658   2.858  0.5166  0.0591  0.2091
 2339SOL    HW1 7073   1.073   2.723   2.795 -1.8838 -1.3197 -0.1556
 2339SOL    HW2 7074   1.142   2.588   2.805  2.5878  0.8345  0.5750
 2340SOL     OW 7075   2.321   3.665   4.348  0.2974 -0.4046 -0.1740
 2340SOL    HW1 7076   2.241   3.618   4.328 -1.0509  1.0580  1.4886
 2340SOL    HW2 7077   2.351   3.628   4.431  0.2631  0.3599  0.1859
 2341SOL     OW 7078   1.124   1.365   4.308  0.6522 -0.2235 -0.2869
 2341SOL    HW1 7079   1.153   1.432   4.370  0.0215 -0.8238  0.6943
 2341SOL    HW2 7080   1.186   1.370   4.236  1.5559  0.3340  0.5030
 2342SOL     OW 7081   0.054   3.445   3.159 -0.0477  0.2318 -0.0026
 2342SOL    HW1 7082  -0.031   3.484   3.142 -0.2317  0.8470  2.1240
 2342SOL    HW2 7083   0.112   3.483   3.093 -1.4827 -0.6422 -1.8594
 2343SOL     OW 7084   4.842   1.602   2.752 -0.1933 -0.4535  0.2036
 2343SOL    HW1 7085   4.804   1.598   2.664  0.6585 -1.5158 -0.1310
 2343SOL    HW2 7086   4.936   1.587   2.739 -0.3341 -3.0058  1.4865
 2344SOL     OW 7087   2.889   2.302   1.396 -0.3922  0.2490 -0.1892
 2344SOL    HW1 7088   2.857   2.392   1.392  0.3330  0.5353  0.2843
 2344SOL    HW2 7089   2.859   2.263   1.314 -1.8388  0.5265  0.1803
 2345SOL     OW 7090   2.678   2.288   2.673 -0.5833 -0.0528  0.3282
 2345SOL    HW1 7091   2.646   2.322   2.589  0.2566  0.3244  0.1551
 2345SOL    HW2 7092   2.755   2.236   2.650  0.2294  0.8366  0.9451
 2346SOL     OW 7093   0.564   2.379   2.175 -0.2773  0.0760  0.1486
 2346SOL    HW1 7094   0.580   2.409   2.085 -1.3597  0.8798  0.2009
 2346SOL    HW2 7095   0.551   2.285   2.167  3.6429 -0.6016  0.0352
 2347SOL     OW 7096   2.651   1.465   2.199 -0.5217 -0.4557  0.3784
 2347SOL    HW1 7097   2.659   1.455   2.294  2.5700 -2.8925  0.0584
 2347SOL    HW2 7098   2.573   1.416   2.176 -0.8910 -0.4721  1.6120
 2348SOL     OW 7099   3.870   3.396   2.242  0.4098  0.0020  0.6642
 2348SOL    HW1 7100   3.920   3.477   2.244 -0.6025  0.6332  1.1598
 2348SOL    HW2 7101   3.830   3.390   2.329 -1.4515  0.2332 -0.1318
 2349SOL     OW 7102   3.504   3.148   4.758 -0.2648 -0.1659 -0.4392
 2349SOL    HW1 7103   3.427   3.094   4.778  1.1648 -1.7038  1.3787
 2349SOL    HW2 7104   3.546   3.103   4.685  1.8389 -2.7908  2.1125
 2350SOL     OW 7105   3.568   2.590   1.017  0.2290 -0.0333  0.0288
 2350SOL    HW1 7106   3.623   2.666   1.038  1.7498 -0.7875 -1.0366
 2350SOL    HW2 7107   3.497   2.627   0.964  1.5086  0.5560 -1.3629
 2351SOL     OW 7108   2.225   0.724   3.428 -0.5918 -0.2803 -0.3659
 2351SOL    HW1 7109   2.156   0.733   3.362 -0.1875  1.3342 -0.6268
 2351SOL    HW2 7110   2.183   0.752   3.510 -0.4272  0.0981 -0.4084
 2352SOL     OW 7111   3.169   0.945   4.516 -0.2190  0.1361 -0.1339
 2352SOL    HW1 7112   3.232   0.921   4.583 -0.1332 -2.3797 -0.9938
 2352SOL    HW2 7113   3.215   1.008   4.460  0.4735  0.5526  0.8930
 2353SOL     OW 7114   2.985   0.500   0.936  0.0855  0.3574  0.1594
 2353SOL    HW1 7115   2.993   0.557   1.013  2.6533 -0.2707  0.4221
 2353SOL    HW2 7116   3.019   0.553   0.864  0.7750 -0.2002  0.0721
 2354SOL     OW 7117   3.313   2.099   4.137  0.1363  0.4119  0.1058
 2354SOL    HW1 7118   3.289   2.014   4.173  0.6314  0.8885  1.6554
 2354SOL    HW2 7119   3.275   2.162   4.198  1.4133  1.2546  0.0651
 2355SOL     OW 7120   4.408   0.247   1.486 -0.3262 -0.0990 -0.4255
 2355SOL    HW1 7121   4.501   0.264   1.475 -0.5259  1.0430 -0.5016
 2355SOL    HW2 7122   4.394   0.161   1.446  0.7360 -0.4126 -0.1492
 2356SOL     OW 7123   3.072   2.431   1.673 -0.4614 -0.0678  0.3128
 2356SOL    HW1 7124   3.028   2.457   1.754  2.0932  0.9408  1.4900
 2356SOL    HW2 7125   3.041   2.492   1.607 -0.2569  1.1086  1.2797
 2357SOL     OW 7126   3.764   2.578   2.461  0.2173  0.3932  0.1504
 2357SOL    HW1 7127   3.689   2.550   2.513  0.0692 -0.0766 -0.3057
 2357SOL    HW2 7128   3.838   2.526   2.495 -0.2387 -1.3605 -1.3393
 2358SOL     OW 7129   1.169   0.806   1.371  0.4174 -0.0409 -0.4053
 2358SOL    HW1 7130   1.180   0.765   1.285  1.3095 -0.0598 -0.2921
 2358SOL    HW2 7131   1.110   0.747   1.419  2.6822 -1.9533  0.2071
 2359SOL     OW 7132   4.434   3.265   0.317  0.5013 -0.4643 -0.0863
 2359SOL    HW1 7133   4.360   3.210   0.289 -0.4842  0.4100  0.7108
 2359SOL    HW2 7134   4.499   3.255   0.247 -2.4974  3.0603 -3.9040
 2360SOL     OW 7135   2.265   0.366   3.048  0.0557 -0.3723 -0.4409
 2360SOL    HW1 7136   2.284   0.301   3.116 -0.6403 -0.2980 -0.1600
 2360SOL    HW2 7137   2.174   0.348   3.023  0.2587 -0.3056 -1.2553
 2361SOL     OW 7138   4.604   2.815   4.522 -0.1578 -0.2104  0.1127
 2361SOL    HW1 7139   4.581   2.858   4.440 -0.9356  1.5127  1.1978
 2361SOL    HW2 7140   4.698   2.798   4.514  0.1789  1.6863 -0.3746
 2362SOL     OW 7141   1.901   0.013   4.685  0.0777 -0.0402  0.0427
 2362SOL    HW1 7142   1.853   0.006   4.767 -0.7233  1.1879 -0.2953
 2362SOL    HW2 7143   1.893   0.105   4.660 -0.3466 -0.5368 -1.8049
 2363SOL     OW 7144   4.179   4.288   1.066 -0.4692  0.2524 -0.0296
 2363SOL    HW1 7145   4.186   4.365   1.008 -1.0324  0.7079  0.5024
 2363SOL    HW2 7146   4.107   4.237   1.029  1.3541 -1.2392 -1.7677
 2364SOL     OW 7147   1.741   1.942   2.430  0.3355  0.0227 -0.0277
 2364SOL    HW1 7148   1.739   2.037   2.420  1.4720  0.1843  1.0014
 2364SOL    HW2 7149   1.668   1.910   2.377  1.8738  1.2120 -3.0626
 2365SOL     OW 7150   2.091   2.125   0.125  0.2062  0.1627  0.2513
 2365SOL    HW1 7151   2.063   2.105   0.215  2.6568 -0.1660  1.0250
 2365SOL    HW2 7152   2.036   2.199   0.099 -1.5900 -0.6689  1.4294
 2366SOL     OW 7153   0.195   2.135   1.472  0.2502 -0.2038  0.1309
 2366SOL    HW1 7154   0.233   2.163   1.389 -0.2231  1.1299  0.3460
 2366SOL    HW2 7155   0.270   2.109   1.525  0.6710  0.2659 -0.2307
 2367SOL     OW 7156   2.704   2.746   4.703 -0.5456  0.3963 -0.0838
 2367SOL    HW1 7157   2.745   2.724   4.619  0.1534 -0.7068  0.5169
 2367SOL    HW2 7158   2.721   2.669   4.759 -1.6298  0.8033  0.8377
 2368SOL     OW 7159   0.627   3.166   0.898  0.8635  0.4371 -0.4080
 2368SOL    HW1 7160   0.591   3.189   0.983  0.5341  1.0675 -0.7151
 2368SOL    HW2 7161   0.557   3.184   0.836  0.8811 -0.6074 -0.7575
 2369SOL     OW 7162   0.283   4.565   3.607 -0.0934 -0.3254  0.2643
 2369SOL    HW1 7163   0.267   4.606   3.692  1.0800  1.0627 -0.1329
 2369SOL    HW2 7164   0.305   4.474   3.628 -0.0773 -0.0755  1.4282
 2370SOL     OW 7165   4.974   1.395   1.599  0.3873 -0.1548 -0.1392
 2370SOL    HW1 7166   4.921   1.472   1.620  0.8533 -0.1682  1.1947
 2370SOL    HW2 7167   4.948   1.330   1.664  0.5121 -0.8844 -0.8091
 2371SOL     OW 7168   3.799   4.584   4.779  0.7821  0.0914  0.0159
 2371SOL    HW1 7169   3.744   4.552   4.708 -0.8865  0.9984  0.8418
 2371SOL    HW2 7170   3.739   4.595   4.853  2.4843 -0.9946  1.6580
 2372SOL     OW 7171   0.364   1.558   1.252  0.3741  0.1111 -0.0805
 2372SOL    HW1 7172   0.371   1.583   1.345  0.6482  0.4603 -0.1915
 2372SOL    HW2 7173   0.361   1.642   1.206 -0.2677 -0.0540 -0.3547
 2373SOL     OW 7174   1.892   1.845   3.593 -0.3034  0.2387 -0.0377
 2373SOL    HW1 7175   1.946   1.923   3.601 -1.6589  1.0290  2.3786
 2373SOL    HW2 7176   1.895   1.805   3.680 -2.0258 -0.7659 -0.3980
 2374SOL     OW 7177   3.305   4.057   2.746 -0.2115  0.3678 -0.0487
 2374SOL    HW1 7178   3.216   4.046   2.779 -0.0436 -0.3748  0.1693
 2374SOL    HW2 7179   3.347   4.113   2.811 -1.4825  3.7745 -1.8913
 2375SOL     OW 7180   1.847   1.006   2.363 -0.7701  0.1832  0.6552
 2375SOL    HW1 7181   1.841   0.969   2.451  0.5136  1.1269  1.1780
 2375SOL    HW2 7182   1.929   0.971   2.328 -2.8506 -3.0627 -1.6470
 2376SOL     OW 7183   0.770   4.129   3.247  0.1986  0.7162  0.4342
 2376SOL    HW1 7184   0.835   4.146   3.180 -0.0860 -0.2244 -0.1049
 2376SOL    HW2 7185   0.755   4.214   3.289 -0.5169  1.5965 -1.4965
 2377SOL     OW 7186   4.186   1.990   1.700 -0.2050 -0.1697  0.2054
 2377SOL    HW1 7187   4.110   1.957   1.746 -0.0916  0.5527  0.9343
 2377SOL    HW2 7188   4.183   2.084   1.713  0.0153  0.0200 -1.0009
 2378SOL     OW 7189   3.705   2.896   1.451 -0.3978  0.2969 -0.0262
 2378SOL    HW1 7190   3.784   2.859   1.410 -0.2574  0.2183  0.3132
 2378SOL    HW2 7191   3.721   2.888   1.545 -1.1435 -0.4205  0.0456
 2379SOL     OW 7192   2.713   1.735   1.830 -0.2367  0.6833 -0.2076
 2379SOL    HW1 7193   2.795   1.736   1.780 -0.7346  0.8579 -1.0409
 2379SOL    HW2 7194   2.668   1.655   1.803  0.1560 -0.0193  1.1135
 2380SOL     OW 7195   3.962   1.512   4.685 -0.7624  0.5184 -0.3096
 2380SOL    HW1 7196   4.036   1.515   4.746 -1.7996  0.1285  1.0241
 2380SOL    HW2 7197   3.995   1.554   4.606  0.3808  1.8703  0.8138
 2381SOL     OW 7198   4.628   3.262   2.310 -0.5013  0.1237 -0.0316
 2381SOL    HW1 7199   4.551   3.293   2.357 -0.8454 -0.6216 -0.1025
 2381SOL    HW2 7200   4.617   3.168   2.305  0.4220  0.0079 -0.0369
 2382SOL     OW 7201   4.921   2.318   2.916 -0.3161 -0.1654  0.0593
 2382SOL    HW1 7202   4.863   2.242   2.906  0.7868 -1.4653  2.5821
 2382SOL    HW2 7203   4.879   2.371   2.984  2.3503 -2.3309  3.7447
 2383SOL     OW 7204   0.134   3.814   1.263  0.4932 -0.2673 -0.0678
 2383SOL    HW1 7205   0.227   3.814   1.243  0.0962 -2.3584 -2.3909
 2383SOL    HW2 7206   0.092   3.785   1.182 -2.4135  2.6881  0.1496
 2384SOL     OW 7207   4.486   2.958   3.623 -0.0755 -0.1283  0.3505
 2384SOL    HW1 7208   4.491   2.927   3.532  0.8639  0.1229  0.3035
 2384SOL    HW2 7209   4.495   3.053   3.616  1.5613 -0.2198  0.7952
 2385SOL     OW 7210   4.069   2.857   4.969 -0.0225 -0.1213  0.3875
 2385SOL    HW1 7211   4.165   2.846   4.967 -0.1757 -1.5763 -0.8249
 2385SOL    HW2 7212   4.050   2.907   4.889 -0.3560 -0.8001  0.0347
 2386SOL     OW 7213  -0.006   1.104   4.926  0.4457  0.3628 -0.2845
 2386SOL    HW1 7214   0.070   1.074   4.876 -1.1916  1.1489 -3.5583
 2386SOL    HW2 7215  -0.031   1.186   4.884 -1.8048  0.5027  1.1523
 2387SOL     OW 7216   4.130   2.235   3.118 -0.3573  0.0386 -0.5418
 2387SOL    HW1 7217   4.087   2.184   3.186  0.5048  1.1205  0.8690
 2387SOL    HW2 7218   4.184   2.171   3.071 -2.4595 -1.0975 -1.5556
 2388SOL     OW 7219   0.074   2.598   0.732  0.0938 -0.0120  0.3330
 2388SOL    HW1 7220   0.162   2.585   0.768  0.3280 -1.1595 -0.5967
 2388SOL    HW2 7221   0.082   2.572   0.640 -1.0168  0.7198  0.0211
 2389SOL     OW 7222   0.108   1.624   2.624 -0.2904  0.0278  0.2258
 2389SOL    HW1 7223   0.104   1.578   2.541  0.4729 -0.1111  0.2637
 2389SOL    HW2 7224   0.200   1.619   2.651 -0.4431  0.4490  0.8607
 2390SOL     OW 7225   2.770   4.973   2.201  0.1287 -0.0165 -0.2656
 2390SOL    HW1 7226   2.861   4.966   2.231 -0.1017  0.5124  0.5786
 2390SOL    HW2 7227   2.718   4.939   2.273 -0.4076  0.8219 -0.2462
 2391SOL     OW 7228   3.006   4.334   4.002 -0.3987  0.1923 -0.6106
 2391SOL    HW1 7229   3.065   4.277   4.051 -0.0070 -0.5761 -1.9324
 2391SOL    HW2 7230   2.994   4.411   4.059 -0.0224 -0.6796  0.6986
 2392SOL     OW 7231   3.655   4.534   3.295  0.0891 -0.0142  0.2513
 2392SOL    HW1 7232   3.723   4.599   3.312  0.5936 -0.9162  2.0333
 2392SOL    HW2 7233   3.664   4.513   3.203  0.2875  1.9962 -0.2359
 2393SOL     OW 7234   4.100   4.841   2.119  1.0254 -0.4639  0.3317
 2393SOL    HW1 7235   4.139   4.906   2.060 -1.4265 -0.0246 -0.9383
 2393SOL    HW2 7236   4.055   4.780   2.061 -1.2584 -0.1732  1.6612
 2394SOL     OW 7237   3.252   4.354   3.465 -0.1919  0.3070 -0.2509
 2394SOL    HW1 7238   3.163   4.321   3.478 -0.0041  0.2476  1.0533
 2394SOL    HW2 7239   3.258   4.430   3.522  0.1211  1.2292 -1.4895
 2395SOL     OW 7240   4.110   0.633   3.581  0.0355  0.4569  0.1241
 2395SOL    HW1 7241   4.109   0.539   3.600  1.6269 -0.0947 -2.1486
 2395SOL    HW2 7242   4.167   0.670   3.648 -2.0348  0.1539  2.1628
 2396SOL     OW 7243   1.455   2.255   0.130 -0.0358  0.7804  0.2781
 2396SOL    HW1 7244   1.524   2.222   0.073 -0.3833 -0.2118  0.4078
 2396SOL    HW2 7245   1.481   2.226   0.218  0.4047  2.1435  0.6122
 2397SOL     OW 7246   0.707   0.734   1.965 -0.3345 -0.0577  0.1137
 2397SOL    HW1 7247   0.691   0.810   1.908 -0.2470 -0.5561 -0.5786
 2397SOL    HW2 7248   0.787   0.757   2.013 -0.5437  0.4688  0.2187
 2398SOL     OW 7249   4.570   1.811   0.754 -0.0356  0.2942  0.2582
 2398SOL    HW1 7250   4.521   1.733   0.726  0.3216  0.3124 -0.4500
 2398SOL    HW2 7251   4.662   1.783   0.750  0.0225  0.2650  1.5556
 2399SOL     OW 7252   3.266   2.816   3.180 -0.3924  0.3886  0.0715
 2399SOL    HW1 7253   3.242   2.888   3.238 -1.3236  0.8761 -0.8894
 2399SOL    HW2 7254   3.242   2.737   3.228 -1.2926  0.7831  0.2861
 2400SOL     OW 7255   3.117   3.341   4.540  0.3400 -0.1512  0.0021
 2400SOL    HW1 7256   3.165   3.263   4.515 -0.8319 -0.7621 -0.4398
 2400SOL    HW2 7257   3.145   3.359   4.630  2.1607  0.1587 -0.5937
 2401SOL     OW 7258   4.613   4.993   2.515  0.0180 -0.4832 -0.0860
 2401SOL    HW1 7259   4.602   5.022   2.425  1.2597 -0.2216 -0.1790
 2401SOL    HW2 7260   4.611   4.897   2.510 -2.3309 -0.4912 -0.0208
 2402SOL     OW 7261   2.472   0.857   3.968  0.9350 -0.4435 -0.7242
 2402SOL    HW1 7262   2.552   0.814   4.001  0.9433  0.1645  0.0865
 2402SOL    HW2 7263   2.491   0.950   3.975 -0.5887 -0.2342  1.4438
 2403SOL     OW 7264   4.685   3.942   4.060 -0.4246  0.1100  0.2947
 2403SOL    HW1 7265   4.710   3.906   4.145 -2.4307 -0.1367  0.8351
 2403SOL    HW2 7266   4.600   3.982   4.075  0.6117  3.0448 -0.8473
 2404SOL     OW 7267   3.104   3.473   0.774 -0.0994 -0.3653  0.2782
 2404SOL    HW1 7268   3.175   3.512   0.825  0.0581  2.0272 -1.5815
 2404SOL    HW2 7269   3.148   3.414   0.713 -0.0878 -1.4928  1.3296
 2405SOL     OW 7270   2.216   3.364   1.663 -0.0748  0.0504 -0.1684
 2405SOL    HW1 7271   2.187   3.375   1.754  0.3038  1.0166 -0.1614
 2405SOL    HW2 7272   2.184   3.442   1.618 -1.7069 -1.1676 -1.2632
 2406SOL     OW 7273   2.449   4.623   0.589 -0.3297  1.0229  0.3882
 2406SOL    HW1 7274   2.399   4.665   0.519 -0.8538 -0.8676 -0.4630
 2406SOL    HW2 7275   2.423   4.531   0.584  1.2019  0.4716  1.7288
 2407SOL     OW 7276   4.004   1.724   1.596 -0.6416 -0.1286  0.4259
 2407SOL    HW1 7277   4.076   1.748   1.537  1.6096 -3.9207  1.2914
 2407SOL    HW2 7278   4.006   1.791   1.665  0.7170  0.9848 -0.6473
 2408SOL     OW 7279   3.745   3.268   1.806 -0.7717  0.8072  0.1204
 2408SOL    HW1 7280   3.685   3.312   1.747 -2.3807  0.0782  1.1583
 2408SOL    HW2 7281   3.792   3.339   1.850 -1.4494  1.4133 -0.1299
 2409SOL     OW 7282   3.835   0.252   3.367  0.1418 -0.4552 -0.5273
 2409SOL    HW1 7283   3.795   0.224   3.285 -0.3011 -0.2872 -0.3700
 2409SOL    HW2 7284   3.819   0.346   3.371 -0.0283 -0.4974 -0.1457
 2410SOL     OW 7285   2.975   2.584   4.843 -0.4540 -0.5065  0.0734
 2410SOL    HW1 7286   2.893   2.561   4.799 -0.5307 -0.6158  0.2725
 2410SOL    HW2 7287   3.037   2.518   4.814 -0.9115 -1.5558  1.3828
 2411SOL     OW 7288   4.155   2.258   1.752 -0.2985  0.1822  0.3395
 2411SOL    HW1 7289   4.083   2.306   1.711  1.5401  1.2715 -1.8258
 2411SOL    HW2 7290   4.186   2.316   1.822 -0.1404  0.7118 -0.1610
 2412SOL     OW 7291   4.376   4.702   0.962  0.4298 -0.2294  0.4912
 2412SOL    HW1 7292   4.371   4.789   1.002  1.6332  0.2713 -0.3637
 2412SOL    HW2 7293   4.468   4.693   0.937 -0.1378 -0.7437 -1.5907
 2413SOL     OW 7294   4.240   0.935   1.278  0.0892 -0.1267  0.2155
 2413SOL    HW1 7295   4.278   0.848   1.283  1.4773  0.4341 -0.2067
 2413SOL    HW2 7296   4.293   0.988   1.338 -0.7627  0.4275  0.4986
 2414SOL     OW 7297   0.770   4.909   2.167  0.3852 -0.3297 -0.4002
 2414SOL    HW1 7298   0.782   4.843   2.236 -4.7752 -1.4791 -0.1500
 2414SOL    HW2 7299   0.690   4.954   2.192  0.3642  1.8451 -3.7798
 2415SOL     OW 7300   4.600   2.704   1.037 -0.1925  0.4818 -0.4265
 2415SOL    HW1 7301   4.613   2.699   0.942 -0.4316  0.5095 -0.4605
 2415SOL    HW2 7302   4.638   2.623   1.070  0.1060  0.5782 -0.5210
 2416SOL     OW 7303   0.964   3.203   1.074 -0.0476 -0.7070 -0.1118
 2416SOL    HW1 7304   0.971   3.130   1.013 -0.8519 -0.7575 -0.1497
 2416SOL    HW2 7305   0.973   3.164   1.160 -2.3047 -1.1524 -0.0217
 2417SOL     OW 7306   3.401   4.337   1.470  0.0054 -0.0482 -0.0077
 2417SOL    HW1 7307   3.353   4.308   1.548 -0.1466  0.7683  0.2108
 2417SOL    HW2 7308   3.480   4.379   1.505 -0.5314  1.1895 -0.2346
 2418SOL     OW 7309   0.773   2.425   1.310  0.0171 -0.0184  0.3219
 2418SOL    HW1 7310   0.840   2.485   1.344 -0.8497  2.2288 -1.6434
 2418SOL    HW2 7311   0.803   2.403   1.222 -0.8244 -0.6393  0.1795
 2419SOL     OW 7312   3.305   2.777   2.353  0.3888  0.4266 -0.5272
 2419SOL    HW1 7313   3.343   2.743   2.434 -1.3389  1.4214  0.7795
 2419SOL    HW2 7314   3.282   2.868   2.374 -1.2110  0.3377 -1.7223
 2420SOL     OW 7315   3.139   3.817   0.937 -0.4116  0.2055  0.2627
 2420SOL    HW1 7316   3.123   3.792   0.845 -0.6934  0.9968  0.0888
 2420SOL    HW2 7317   3.228   3.850   0.937 -0.9040  1.5966 -0.0452
 2421SOL     OW 7318   1.778   0.005   3.116 -0.2250  0.5371  0.1359
 2421SOL    HW1 7319   1.768   0.096   3.145 -1.0435  0.2879  0.6560
 2421SOL    HW2 7320   1.870  -0.001   3.090  0.0970  1.2339  1.0572
 2422SOL     OW 7321   4.794   3.621   4.556 -0.4679 -0.1900 -0.0741
 2422SOL    HW1 7322   4.828   3.604   4.468 -1.3453 -0.2348 -0.4117
 2422SOL    HW2 7323   4.867   3.598   4.615  0.5910  1.0859 -0.8331
 2423SOL     OW 7324   0.398   3.701   1.109  0.6247 -0.0815  0.5217
 2423SOL    HW1 7325   0.441   3.778   1.073  3.1244 -0.3153  2.6679
 2423SOL    HW2 7326   0.422   3.630   1.049 -1.9661  0.7257 -1.6492
 2424SOL     OW 7327   2.396   4.742   2.283 -0.0517  0.3030  0.3000
 2424SOL    HW1 7328   2.402   4.776   2.372 -1.4118  0.0250  0.5169
 2424SOL    HW2 7329   2.359   4.655   2.292 -0.9787  0.5868 -0.5887
 2425SOL     OW 7330   0.147   1.102   4.424 -0.1065  0.4310 -0.5348
 2425SOL    HW1 7331   0.167   1.029   4.365 -1.5573  0.1804 -0.7535
 2425SOL    HW2 7332   0.204   1.173   4.394  2.4435 -0.9843  0.6119
 2426SOL     OW 7333   0.872   4.645   1.326 -0.1533  0.0549  0.4552
 2426SOL    HW1 7334   0.803   4.682   1.380  0.4696 -0.1247  1.3819
 2426SOL    HW2 7335   0.916   4.720   1.287 -0.7387  0.1754  0.0176
 2427SOL     OW 7336   3.513   3.479   2.947 -0.1771 -0.7691 -0.4939
 2427SOL    HW1 7337   3.493   3.386   2.959  0.4624 -0.8596 -0.1186
 2427SOL    HW2 7338   3.606   3.482   2.927 -0.1110 -0.1827 -0.1387
 2428SOL     OW 7339   2.885   1.751   0.814  0.5435  0.0903  0.5221
 2428SOL    HW1 7340   2.892   1.678   0.753  0.9690 -0.2672  0.9867
 2428SOL    HW2 7341   2.793   1.774   0.814  0.1259 -1.4400  1.5036
 2429SOL     OW 7342   3.399   4.313   4.366  0.3480  0.7996 -0.3057
 2429SOL    HW1 7343   3.488   4.344   4.384  0.0967  1.2818  0.1353
 2429SOL    HW2 7344   3.349   4.393   4.349 -0.1527  0.5803  0.1252
 2430SOL     OW 7345   0.342   1.210   3.903  0.1129  0.3561  0.0731
 2430SOL    HW1 7346   0.380   1.290   3.938  1.5127  0.0693 -0.7135
 2430SOL    HW2 7347   0.332   1.227   3.809 -3.4501  1.0616  0.4533
 2431SOL     OW 7348   0.790   2.005   1.160 -0.1069 -0.2910 -0.4348
 2431SOL    HW1 7349   0.806   1.972   1.071  1.6334 -1.2440  0.1748
 2431SOL    HW2 7350   0.812   2.098   1.156  2.7344 -0.8819 -0.4279
 2432SOL     OW 7351   0.680   2.398   0.201 -0.2048  0.3578  0.7583
 2432SOL    HW1 7352   0.770   2.429   0.193 -0.9667  2.4372 -0.9031
 2432SOL    HW2 7353   0.672   2.369   0.292  2.3210 -0.6251  0.7256
 2433SOL     OW 7354   2.885   3.281   0.515  0.2733 -0.0149 -0.1931
 2433SOL    HW1 7355   2.932   3.361   0.491  1.0698 -0.1963  0.7315
 2433SOL    HW2 7356   2.882   3.230   0.434  0.4751  0.5907 -0.5877
 2434SOL     OW 7357   4.033   1.476   3.629  0.4837 -0.2120  0.0288
 2434SOL    HW1 7358   4.052   1.411   3.697 -1.3887 -0.4976  0.3481
 2434SOL    HW2 7359   4.098   1.544   3.642  1.7544 -1.4592  0.4520
 2435SOL     OW 7360   0.456   4.873   3.432  0.8425  0.0839  0.0387
 2435SOL    HW1 7361   0.416   4.881   3.519  1.6168 -2.2389  0.6579
 2435SOL    HW2 7362   0.388   4.833   3.378  1.2736 -1.0711  0.3238
 2436SOL     OW 7363   3.361   4.762   2.712  0.0777 -0.6227 -0.0966
 2436SOL    HW1 7364   3.285   4.705   2.718 -1.1076  0.8866 -0.2568
 2436SOL    HW2 7365   3.362   4.793   2.621 -0.5436  1.2104  0.4803
 2437SOL     OW 7366   2.845   1.712   3.673 -0.1196  0.2918 -0.9987
 2437SOL    HW1 7367   2.907   1.694   3.744 -0.9549  1.5184  0.0887
 2437SOL    HW2 7368   2.900   1.722   3.596  1.6166  4.8544  0.4689
 2438SOL     OW 7369   4.536   0.276   4.122 -0.2257 -0.4193  0.6932
 2438SOL    HW1 7370   4.522   0.189   4.084  1.3471 -0.2908 -0.2590
 2438SOL    HW2 7371   4.630   0.280   4.138 -0.1217  1.4219 -0.1188
 2439SOL     OW 7372   2.778   4.749   0.902  0.4349  0.1716 -0.6502
 2439SOL    HW1 7373   2.771   4.729   0.995  0.6071  0.5721 -0.5495
 2439SOL    HW2 7374   2.871   4.763   0.887  0.4493 -0.2128 -0.9535
 2440SOL     OW 7375   2.535   0.387   2.054  0.3362 -0.5284  0.1110
 2440SOL    HW1 7376   2.556   0.473   2.090 -0.8709  0.1062 -0.6365
 2440SOL    HW2 7377   2.617   0.338   2.059  1.5450  1.2516 -1.0542
 2441SOL     OW 7378   2.354   1.766   4.197  0.3834 -0.4537  0.2094
 2441SOL    HW1 7379   2.355   1.675   4.169  0.6934  0.5213 -3.4559
 2441SOL    HW2 7380   2.261   1.787   4.206  0.2520 -0.7867 -0.3254
 2442SOL     OW 7381   4.091   1.083   4.642  0.0596 -0.8534  0.4629
 2442SOL    HW1 7382   4.163   1.043   4.593  0.1585  0.4978 -0.5245
 2442SOL    HW2 7383   4.014   1.069   4.588  0.1131  0.3656  0.0512
 2443SOL     OW 7384   4.120   2.568   0.627  0.3276  0.4540  0.1479
 2443SOL    HW1 7385   4.085   2.656   0.614  0.1196  0.4395  0.5977
 2443SOL    HW2 7386   4.208   2.572   0.590  0.3844  0.8984  0.3208
 2444SOL     OW 7387   1.452   1.262   2.659  0.4996 -0.5552 -0.2369
 2444SOL    HW1 7388   1.468   1.286   2.568  0.4909  0.5371  0.0338
 2444SOL    HW2 7389   1.422   1.343   2.701  1.1631 -0.8598  0.8924
 2445SOL     OW 7390   2.122   3.623   1.633 -0.5823  0.0244 -0.0701
 2445SOL    HW1 7391   2.079   3.626   1.718  1.2300 -1.1601  0.9440
 2445SOL    HW2 7392   2.089   3.700   1.586 -0.4983  1.5471  2.2336
 2446SOL     OW 7393   1.300   0.330   1.742  0.0033 -0.2111 -0.0905
 2446SOL    HW1 7394   1.289   0.369   1.829 -0.8577 -0.3450 -0.1315
 2446SOL    HW2 7395   1.250   0.388   1.684 -0.0956 -0.5763 -0.3678
 2447SOL     OW 7396   1.593   4.151   1.456  0.3271  0.9111  0.2691
 2447SOL    HW1 7397   1.537   4.222   1.426 -0.0866 -0.4845 -2.6876
 2447SOL    HW2 7398   1.568   4.076   1.401  2.2830 -0.9003  1.6643
 2448SOL     OW 7399   0.931   0.570   4.233  0.3702 -0.1573 -0.2037
 2448SOL    HW1 7400   0.981   0.509   4.178  0.3379 -1.4620  1.1660
 2448SOL    HW2 7401   0.904   0.639   4.172  1.3489 -0.9200 -1.5780
 2449SOL     OW 7402   1.562   0.328   2.821  0.1294  0.1080 -0.0008
 2449SOL    HW1 7403   1.536   0.342   2.912 -0.6645 -0.7486 -0.0804
 2449SOL    HW2 7404   1.657   0.315   2.825  0.0383 -0.3664  0.7587
 2450SOL     OW 7405   4.896   0.487   2.691  0.5525  0.1516 -0.0939
 2450SOL    HW1 7406   4.884   0.422   2.622 -0.0308 -0.5696  0.6699
 2450SOL    HW2 7407   4.965   0.544   2.657  0.9815 -0.7731 -0.8492
 2451SOL     OW 7408   1.205   2.492   0.506  0.6453 -0.0129  0.1895
 2451SOL    HW1 7409   1.138   2.474   0.439  1.7612 -1.7175 -0.5528
 2451SOL    HW2 7410   1.274   2.537   0.458 -0.2049  2.4241  1.1114
 2452SOL     OW 7411   2.409   2.971   3.162  0.5712  0.1086 -0.4905
 2452SOL    HW1 7412   2.466   3.035   3.205  0.6428 -1.5382  2.0573
 2452SOL    HW2 7413   2.326   2.979   3.208  0.5249 -1.4623 -0.2550
 2453SOL     OW 7414   2.639   4.464   4.061  0.2355  0.2470  0.1428
 2453SOL    HW1 7415   2.646   4.487   4.154  0.6651  0.7335 -0.0075
 2453SOL    HW2 7416   2.545   4.450   4.048  0.2222 -0.3229  0.7614
 2454SOL     OW 7417   0.716   4.878   3.712  0.2728  0.2085 -0.2292
 2454SOL    HW1 7418   0.782   4.946   3.700  2.4767 -1.7628 -0.0117
 2454SOL    HW2 7419   0.707   4.870   3.807 -1.3124  1.3706 -0.2616
 2455SOL     OW 7420   2.907   2.442   0.764 -0.5010  0.1666  0.3960
 2455SOL    HW1 7421   2.854   2.475   0.692 -1.0666  1.0996  1.2100
 2455SOL    HW2 7422   2.936   2.355   0.735 -1.6675  0.0439 -0.4744
 2456SOL     OW 7423   0.126   0.940   3.103 -0.0651 -0.8274 -0.3572
 2456SOL    HW1 7424   0.039   0.929   3.064 -0.6086  0.2114  0.5025
 2456SOL    HW2 7425   0.161   1.020   3.064 -0.6803  0.3130  1.3121
 2457SOL     OW 7426   1.035   3.351   4.439  0.3396  0.4758  0.0826
 2457SOL    HW1 7427   0.955   3.303   4.416  0.2639 -0.1214  1.5136
 2457SOL    HW2 7428   1.087   3.351   4.358 -0.8590  0.4005 -0.7169
 2458SOL     OW 7429   1.164   2.203   0.177 -0.0162  0.2758 -0.4931
 2458SOL    HW1 7430   1.244   2.241   0.142  2.3592 -0.8544  3.1119
 2458SOL    HW2 7431   1.170   2.110   0.155  0.7128 -0.1494  1.2972
 2459SOL     OW 7432   4.019   1.214   3.483 -0.2497  0.1360  0.4137
 2459SOL    HW1 7433   4.069   1.273   3.540 -0.8142  1.2817 -0.2580
 2459SOL    HW2 7434   4.073   1.204   3.405 -1.2884  1.8488 -0.5669
 2460SOL     OW 7435   3.716   0.200   3.764 -0.0372  0.0877  0.7373
 2460SOL    HW1 7436   3.696   0.256   3.689 -2.5211 -1.3375  0.2149
 2460SOL    HW2 7437   3.696   0.111   3.733 -0.7163 -0.5867  2.9340
 2461SOL     OW 7438   0.764   4.762   4.876  0.1694 -0.2230 -0.0530
 2461SOL    HW1 7439   0.698   4.779   4.943  0.2148 -0.8477  0.1543
 2461SOL    HW2 7440   0.846   4.795   4.913 -0.5654  4.5306 -1.9217
 2462SOL     OW 7441   0.449   2.980   1.165 -0.0074 -0.1082 -0.0807
 2462SOL    HW1 7442   0.368   3.013   1.126 -0.1352 -0.6040 -0.2405
 2462SOL    HW2 7443   0.449   3.016   1.254 -0.6795 -0.5405  0.1015
 2463SOL     OW 7444   0.087   1.814   4.638  0.0668  0.7233  0.4126
 2463SOL    HW1 7445   0.162   1.871   4.619  0.7580 -0.0150  0.8744
 2463SOL    HW2 7446   0.010   1.867   4.615  0.7432  0.7401 -2.1706
 2464SOL     OW 7447   1.729   4.168   4.965 -0.4749  0.1386  0.0641
 2464SOL    HW1 7448   1.704   4.247   4.917  0.6417  0.1589 -0.5132
 2464SOL    HW2 7449   1.735   4.196   5.056  1.8467  1.2794 -0.3493
 2465SOL     OW 7450   2.938   4.588   4.082 -0.0911  0.4251  0.8258
 2465SOL    HW1 7451   2.945   4.641   4.162  0.8532  0.6409  0.6198
 2465SOL    HW2 7452   2.847   4.596   4.055 -0.2820  0.8246  1.5589
 2466SOL     OW 7453   0.940   2.434   0.216 -0.2616  0.3700  0.2515
 2466SOL    HW1 7454   0.984   2.514   0.187  0.0665 -0.9914 -3.5397
 2466SOL    HW2 7455   1.006   2.365   0.206 -1.5063 -0.8573  0.1933
 2467SOL     OW 7456   3.394   3.335   3.820  0.0571 -0.1820  0.0729
 2467SOL    HW1 7457   3.350   3.288   3.891 -1.2532 -0.9746 -1.1948
 2467SOL    HW2 7458   3.442   3.406   3.863 -1.2944 -0.1871  1.6667
 2468SOL     OW 7459   0.463   0.699   0.352  0.2187  0.1977 -0.2388
 2468SOL    HW1 7460   0.440   0.616   0.395  0.1933  0.3736  0.0872
 2468SOL    HW2 7461   0.537   0.677   0.295  0.1461 -0.0705 -0.2308
 2469SOL     OW 7462   4.981   3.712   0.410 -0.0023 -0.0939 -0.1598
 2469SOL    HW1 7463   5.016   3.718   0.499  1.6689 -0.2087 -0.7688
 2469SOL    HW2 7464   4.941   3.625   0.406 -0.0732 -0.0983  0.4623
 2470SOL     OW 7465   3.902   2.326   4.048 -0.3849  0.4360  0.2010
 2470SOL    HW1 7466   3.899   2.292   3.959  1.0621 -0.6698  0.5549
 2470SOL    HW2 7467   3.994   2.321   4.073 -0.9969 -1.1060  2.4413
 2471SOL     OW 7468   2.900   3.054   4.414 -0.2491 -0.3089  0.3487
 2471SOL    HW1 7469   2.850   3.119   4.364 -0.8366  0.0903  1.4031
 2471SOL    HW2 7470   2.869   3.065   4.504  0.4232 -1.3315  0.7233
 2472SOL     OW 7471   3.272   1.601   3.699  0.2148  0.3646 -0.1990
 2472SOL    HW1 7472   3.326   1.677   3.677  0.3281  1.5197  3.3998
 2472SOL    HW2 7473   3.195   1.638   3.742 -1.0979 -1.4814 -0.8212
 2473SOL     OW 7474   2.652   4.783   2.023  0.4245  0.1939  0.0195
 2473SOL    HW1 7475   2.563   4.817   2.015  1.2847  2.6144 -0.1356
 2473SOL    HW2 7476   2.699   4.850   2.073  2.3696 -0.5876 -0.6697
 2474SOL     OW 7477   0.900   3.386   2.520 -0.2328 -0.3616 -0.7110
 2474SOL    HW1 7478   0.901   3.473   2.560  1.8716  0.2786 -1.9808
 2474SOL    HW2 7479   0.823   3.387   2.463 -0.2370  0.6931 -0.7105
 2475SOL     OW 7480   4.552   3.792   3.557  0.8138 -0.2637 -0.4292
 2475SOL    HW1 7481   4.462   3.793   3.525  0.2448 -2.2527  0.9164
 2475SOL    HW2 7482   4.556   3.866   3.618 -0.4110 -1.0264  0.6415
 2476SOL     OW 7483   1.161   4.197   1.528  0.3042  0.4787  0.1434
 2476SOL    HW1 7484   1.182   4.193   1.435 -1.1237 -0.3093 -0.1729
 2476SOL    HW2 7485   1.210   4.272   1.560 -0.7036  1.9885 -1.6637
 2477SOL     OW 7486   1.118   1.555   1.279 -0.1619 -0.2918  0.5867
 2477SOL    HW1 7487   1.197   1.540   1.226  1.1993  0.1524  2.3859
 2477SOL    HW2 7488   1.072   1.471   1.276  1.9724 -1.6261  1.9624
 2478SOL     OW 7489   4.165   0.819   2.058 -0.2928  0.0257  0.1192
 2478SOL    HW1 7490   4.199   0.734   2.029 -2.4378 -0.7041 -0.5111
 2478SOL    HW2 7491   4.225   0.848   2.126  0.5349 -1.9857  0.3135
 2479SOL     OW 7492   1.211   0.134   3.218  0.5667 -0.1154 -0.0348
 2479SOL    HW1 7493   1.162   0.182   3.151  0.1602  1.1315  1.1214
 2479SOL    HW2 7494   1.162   0.052   3.229 -1.5176  1.2189  1.3154
 2480SOL     OW 7495   2.421   3.959   0.969  0.3891 -0.7902  0.0296
 2480SOL    HW1 7496   2.465   3.942   0.885 -1.1263  1.4504 -1.3178
 2480SOL    HW2 7497   2.384   4.046   0.959  0.1105 -0.4663  3.0680
 2481SOL     OW 7498   4.492   3.582   3.136  0.8176 -0.6288  0.1667
 2481SOL    HW1 7499   4.425   3.520   3.165 -0.2914  0.2348 -0.4671
 2481SOL    HW2 7500   4.530   3.543   3.058 -0.0836 -0.3912 -0.4021
 2482SOL     OW 7501   1.266   0.383   2.015 -0.2286  0.1927 -0.9849
 2482SOL    HW1 7502   1.360   0.404   2.016 -0.4355  1.7133  2.3938
 2482SOL    HW2 7503   1.261   0.297   2.056 -0.3274  0.7971  0.3405
 2483SOL     OW 7504   4.263   2.639   4.325 -0.2920  0.2398  0.1040
 2483SOL    HW1 7505   4.344   2.595   4.349  0.1657 -0.5114 -2.4348
 2483SOL    HW2 7506   4.274   2.729   4.356  2.0034  0.4292 -0.9988
 2484SOL     OW 7507   0.446   1.481   4.138  0.2550  0.4061  0.4896
 2484SOL    HW1 7508   0.539   1.464   4.151  0.7366  2.1692 -0.3776
 2484SOL    HW2 7509   0.437   1.576   4.149 -1.6010  0.1745  1.4305
 2485SOL     OW 7510   2.138   2.244   2.302 -0.3110 -0.0876 -0.1447
 2485SOL    HW1 7511   2.069   2.310   2.305 -0.6816 -0.4211 -1.1555
 2485SOL    HW2 7512   2.214   2.290   2.267  0.1550  0.4103  1.4386
 2486SOL     OW 7513   1.705   2.453   4.572 -0.6314 -0.2347  0.2116
 2486SOL    HW1 7514   1.613   2.436   4.594 -0.4316  0.7184  1.9116
 2486SOL    HW2 7515   1.732   2.521   4.633  1.2785 -0.6540 -0.1111
 2487SOL     OW 7516   3.407   0.895   0.835  0.2085  0.1261 -0.5680
 2487SOL    HW1 7517   3.455   0.976   0.854 -1.1553  1.0011 -0.6999
 2487SOL    HW2 7518   3.373   0.868   0.921  1.5580 -0.9390 -0.3355
 2488SOL     OW 7519   0.759   2.712   3.941  0.1937  0.8660  0.0056
 2488SOL    HW1 7520   0.760   2.619   3.963 -2.3980  1.2725  2.3663
 2488SOL    HW2 7521   0.767   2.757   4.025 -0.9326  2.7347 -0.8121
 2489SOL     OW 7522   0.972   0.855   1.963 -0.8088 -0.1229  0.3158
 2489SOL    HW1 7523   1.007   0.894   1.883  2.2221 -0.5697  1.2693
 2489SOL    HW2 7524   0.971   0.761   1.945 -0.0085 -0.2358  0.7679
 2490SOL     OW 7525   3.232   0.794   3.533 -0.2227  0.2833 -0.5033
 2490SOL    HW1 7526   3.291   0.727   3.568  0.4034  1.1173  0.0833
 2490SOL    HW2 7527   3.195   0.755   3.455  0.6230 -0.5118 -0.5210
 2491SOL     OW 7528   4.254   4.731   3.161 -0.0910  0.4356  0.4414
 2491SOL    HW1 7529   4.276   4.775   3.079  2.6189  0.8815  1.3338
 2491SOL    HW2 7530   4.179   4.676   3.139  0.9902 -0.0122 -2.5215
 2492SOL     OW 7531   0.710   1.445   2.303 -0.0065  0.9458  0.3502
 2492SOL    HW1 7532   0.733   1.536   2.286 -0.5187  0.8981 -0.7157
 2492SOL    HW2 7533   0.719   1.402   2.218 -0.1507  0.0879  0.7579
 2493SOL     OW 7534   4.161   3.086   0.468  0.4074  0.2841 -0.0694
 2493SOL    HW1 7535   4.169   3.068   0.374  0.0662 -0.2937  0.0075
 2493SOL    HW2 7536   4.114   3.169   0.473 -0.3195 -0.1010 -0.4030
 2494SOL     OW 7537   4.277   0.949   3.365  0.2176  0.1876 -0.2601
 2494SOL    HW1 7538   4.251   1.031   3.322 -0.2787  1.1980  1.8484
 2494SOL    HW2 7539   4.337   0.977   3.434 -1.5538 -0.9528  1.8415
 2495SOL     OW 7540   3.921   4.890   4.945  0.1325  0.3554 -0.7433
 2495SOL    HW1 7541   3.934   4.805   4.987 -1.1276  0.5696  0.1450
 2495SOL    HW2 7542   3.958   4.880   4.857  2.1855 -0.3346  0.1286
 2496SOL     OW 7543   0.675   3.655   3.963  0.2536 -0.1184 -0.2588
 2496SOL    HW1 7544   0.758   3.700   3.947 -0.1550  0.6266 -0.3500
 2496SOL    HW2 7545   0.616   3.690   3.896 -0.1215 -0.6722 -0.2186
 2497SOL     OW 7546   4.591   0.387   3.697 -0.3695 -0.0620 -0.2739
 2497SOL    HW1 7547   4.522   0.407   3.760 -1.3578 -2.8300 -0.3221
 2497SOL    HW2 7548   4.672   0.406   3.744 -1.0703  3.0411 -0.1367
 2498SOL     OW 7549   4.902   4.454   1.352 -0.3182 -0.3024 -0.0533
 2498SOL    HW1 7550   4.988   4.414   1.363  0.1439  0.3872 -0.9791
 2498SOL    HW2 7551   4.843   4.398   1.401  0.7663 -0.3714  1.2220
 2499SOL     OW 7552   2.049   0.627   4.665  0.2026  0.4404  0.2880
 2499SOL    HW1 7553   2.142   0.607   4.663  0.4015  1.3043  0.5492
 2499SOL    HW2 7554   2.045   0.722   4.658 -0.6889  0.3552 -0.5514
 2500SOL     OW 7555   4.687   4.724   2.503  0.1062  0.2131 -0.0080
 2500SOL    HW1 7556   4.626   4.702   2.433 -0.4044  0.2356  0.4163
 2500SOL    HW2 7557   4.735   4.643   2.520 -0.6382 -0.1467  0.4521
 2501SOL     OW 7558   3.335   4.251   1.742  0.0550 -0.5128 -0.0533
 2501SOL    HW1 7559   3.329   4.342   1.771 -0.1931 -0.0602 -1.4635
 2501SOL    HW2 7560   3.266   4.206   1.791  0.7406 -0.1423  1.2934
 2502SOL     OW 7561   1.144   4.163   1.184  0.6906  0.6666  0.6206
 2502SOL    HW1 7562   1.193   4.240   1.155  0.1299  0.9819  0.4957
 2502SOL    HW2 7563   1.056   4.196   1.203 -0.0137 -0.1962 -0.9336
 2503SOL     OW 7564   1.311   0.965   1.565 -0.7747  0.6129 -0.6050
 2503SOL    HW1 7565   1.262   0.918   1.497 -0.4234 -1.0058  0.2064
 2503SOL    HW2 7566   1.403   0.953   1.541 -0.6815  0.8603 -0.3693
 2504SOL     OW 7567   1.789   0.456   3.601  0.0427  0.2303 -0.0992
 2504SOL    HW1 7568   1.706   0.487   3.637  0.5591  1.0042  0.4619
 2504SOL    HW2 7569   1.822   0.394   3.665 -0.1862 -0.2210 -0.4129
 2505SOL     OW 7570   4.571   1.690   4.583 -0.0372 -0.0803  0.4568
 2505SOL    HW1 7571   4.558   1.742   4.662  1.3225 -0.6394  1.0741
 2505SOL    HW2 7572   4.651   1.725   4.543  0.7073 -1.4344  0.6998
 2506SOL     OW 7573   4.854   4.349   0.988 -0.2590 -0.7962 -0.1627
 2506SOL    HW1 7574   4.791   4.280   1.011  2.0513 -1.9377  3.8655
 2506SOL    HW2 7575   4.818   4.428   1.027 -1.3709 -0.3149 -2.0369
 2507SOL     OW 7576   2.755   2.317   4.296  0.1197  0.0487  0.1117
 2507SOL    HW1 7577   2.671   2.356   4.319 -0.2570  0.9270 -2.4395
 2507SOL    HW2 7578   2.732   2.232   4.258  0.4902 -0.1823  0.3910
 2508SOL     OW 7579   1.770   0.369   1.693 -0.7982 -0.2419 -0.0358
 2508SOL    HW1 7580   1.810   0.435   1.637 -1.8359  0.0518 -0.4512
 2508SOL    HW2 7581   1.678   0.368   1.667 -1.3230 -0.0788  1.6720
 2509SOL     OW 7582   0.870   4.308  -0.017 -0.1712  0.4601  0.1109
 2509SOL    HW1 7583   0.889   4.353   0.065 -1.6308  0.2177  0.6049
 2509SOL    HW2 7584   0.843   4.220   0.009 -0.0074  0.1725 -0.6671
 2510SOL     OW 7585   2.898   0.273   4.366  0.5577  0.0910  0.3770
 2510SOL    HW1 7586   2.983   0.317   4.363  0.1987  0.7638 -0.5424
 2510SOL    HW2 7587   2.906   0.202   4.302  0.4011  0.2110  0.2243
 2511SOL     OW 7588   3.288   4.172   1.049  0.1818  0.9738 -0.3360
 2511SOL    HW1 7589   3.302   4.232   0.976 -1.5585  1.0778 -0.6340
 2511SOL    HW2 7590   3.193   4.158   1.051  0.0982  1.3293  2.1731
 2512SOL     OW 7591   3.713   4.230   2.193 -0.1908 -0.5289 -0.4338
 2512SOL    HW1 7592   3.649   4.265   2.130  3.2577  0.9060 -3.4884
 2512SOL    HW2 7593   3.783   4.295   2.194  1.6018 -2.3341  2.1814
 2513SOL     OW 7594   0.637   0.479   0.577  0.2153 -0.3168 -0.1276
 2513SOL    HW1 7595   0.616   0.496   0.669  2.6613  0.8825  0.2946
 2513SOL    HW2 7596   0.690   0.399   0.579 -1.2207 -1.3265 -0.7550
 2514SOL     OW 7597   4.263   2.216   4.320 -0.3701  0.5178  0.5512
 2514SOL    HW1 7598   4.184   2.164   4.332 -0.9270  1.0802 -0.4823
 2514SOL    HW2 7599   4.255   2.250   4.231  1.9069 -0.8614 -0.2411
 2515SOL     OW 7600   3.525   1.815   2.616  0.3174 -0.4127 -0.5025
 2515SOL    HW1 7601   3.485   1.892   2.575  1.2032 -0.8485 -2.3001
 2515SOL    HW2 7602   3.458   1.781   2.675 -1.3824 -0.2322 -2.2488
 2516SOL     OW 7603   2.528   0.643   3.286  0.1580  0.5097 -0.1736
 2516SOL    HW1 7604   2.546   0.714   3.347 -1.2076 -0.8627  1.9182
 2516SOL    HW2 7605   2.452   0.672   3.236  0.5893  1.1591 -0.4705
 2517SOL     OW 7606   3.534   4.368   2.032 -0.6191  0.3211  0.6848
 2517SOL    HW1 7607   3.521   4.443   1.974 -2.4320  0.1277  0.7844
 2517SOL    HW2 7608   3.447   4.348   2.066 -0.0761 -1.3967  1.1992
 2518SOL     OW 7609   2.213   3.321   3.623  0.0801  0.1337 -0.4199
 2518SOL    HW1 7610   2.307   3.335   3.637  0.2402 -0.5050 -0.8588
 2518SOL    HW2 7611   2.208   3.259   3.550 -0.6876  0.3322 -0.5417
 2519SOL     OW 7612   2.692   2.159   3.928 -0.0597  0.1747 -0.2704
 2519SOL    HW1 7613   2.721   2.086   3.873  0.2019 -0.3460  0.5371
 2519SOL    HW2 7614   2.624   2.122   3.984 -0.2277  0.6635 -0.1451
 2520SOL     OW 7615   1.258   3.990   2.947 -0.9589  0.0420 -0.2613
 2520SOL    HW1 7616   1.324   4.057   2.929  0.1747 -1.4778 -2.1763
 2520SOL    HW2 7617   1.253   3.986   3.043  1.6350  0.3552 -0.0388
 2521SOL     OW 7618   2.622   4.265   3.623  0.3485 -0.1897 -0.4002
 2521SOL    HW1 7619   2.674   4.336   3.660 -0.7595  0.4476 -0.0424
 2521SOL    HW2 7620   2.536   4.304   3.605 -0.3133 -1.4503 -0.1169
 2522SOL     OW 7621   2.031   2.589   0.444  0.1218 -0.0230  0.4178
 2522SOL    HW1 7622   2.026   2.498   0.472 -0.8524  0.3910  1.7159
 2522SOL    HW2 7623   2.071   2.635   0.518 -0.0358  0.7028  0.0669
 2523SOL     OW 7624   3.660   4.804   1.996 -0.8193  0.0564  0.0581
 2523SOL    HW1 7625   3.609   4.775   1.920 -0.0117 -0.6418 -0.2361
 2523SOL    HW2 7626   3.599   4.797   2.070 -0.4777 -3.2499  0.1511
 2524SOL     OW 7627   1.277   2.811   1.176  0.0591 -0.3059  0.2030
 2524SOL    HW1 7628   1.334   2.884   1.154 -1.0873  0.6826  0.4365
 2524SOL    HW2 7629   1.197   2.826   1.125  0.2707 -2.1141 -0.7779
 2525SOL     OW 7630   0.186   2.216   3.006 -0.3274  0.1878  0.2920
 2525SOL    HW1 7631   0.240   2.237   2.929  0.4790 -2.1727  0.1284
 2525SOL    HW2 7632   0.096   2.217   2.973 -0.2443  1.9964  0.0379
 2526SOL     OW 7633   0.904   1.768   0.657  0.0928 -0.1150 -0.5649
 2526SOL    HW1 7634   0.949   1.822   0.723  1.0503  0.2096 -1.4444
 2526SOL    HW2 7635   0.941   1.681   0.668 -0.6679 -0.3596  0.1435
 2527SOL     OW 7636   2.577   1.151   4.646  0.3194  0.1536 -0.0218
 2527SOL    HW1 7637   2.538   1.105   4.720  0.1057 -1.1278 -0.8732
 2527SOL    HW2 7638   2.671   1.138   4.656  0.2672 -0.3903 -0.1827
 2528SOL     OW 7639   2.966   1.496   1.815 -0.4150 -0.1456 -0.1471
 2528SOL    HW1 7640   2.954   1.589   1.793 -0.3727 -0.3969 -1.2769
 2528SOL    HW2 7641   3.050   1.473   1.776 -0.9653 -0.9570 -0.8984
 2529SOL     OW 7642   4.501   4.205   0.427 -0.3828  0.3657 -0.4290
 2529SOL    HW1 7643   4.584   4.249   0.444 -0.2870 -0.9242  3.5267
 2529SOL    HW2 7644   4.447   4.225   0.503 -2.3072 -1.8787 -1.0603
 2530SOL     OW 7645   1.451   4.842   2.254  0.2101  0.7352 -0.4777
 2530SOL    HW1 7646   1.389   4.800   2.313  0.9723  0.3443  0.0707
 2530SOL    HW2 7647   1.400   4.865   2.176 -0.1654 -1.6351 -1.0035
 2531SOL     OW 7648   4.640   2.450   1.148 -0.4164  0.1486 -0.0165
 2531SOL    HW1 7649   4.705   2.394   1.192  0.4317  0.9379 -0.2413
 2531SOL    HW2 7650   4.558   2.401   1.157  0.2270 -0.9588  0.1172
 2532SOL     OW 7651   4.659   0.971   3.143  0.1229  0.0055 -0.2468
 2532SOL    HW1 7652   4.583   0.941   3.193  0.1540 -0.0343 -0.2232
 2532SOL    HW2 7653   4.693   1.046   3.192 -1.0931  1.2993 -1.3015
 2533SOL     OW 7654   2.003   0.139   2.018 -0.2020 -0.0492 -0.2406
 2533SOL    HW1 7655   2.015   0.161   1.925 -0.0761 -0.7007 -0.3783
 2533SOL    HW2 7656   1.943   0.207   2.050  0.4332  0.7012 -0.5808
 2534SOL     OW 7657   4.751   2.102   3.272  0.4389  0.1989  0.0293
 2534SOL    HW1 7658   4.700   2.173   3.235  0.9551  1.1117  0.9937
 2534SOL    HW2 7659   4.755   2.036   3.203 -0.4358  0.9080 -0.7210
 2535SOL     OW 7660   0.791   0.230   0.315 -0.0386 -0.0595 -0.2984
 2535SOL    HW1 7661   0.785   0.255   0.407 -3.2256 -1.0499 -0.1367
 2535SOL    HW2 7662   0.712   0.267   0.275  1.2423  0.3169 -2.6730
 2536SOL     OW 7663   1.406   2.090   3.762  0.8099  0.1623 -0.0450
 2536SOL    HW1 7664   1.388   2.183   3.774  1.2289  0.2632 -0.1928
 2536SOL    HW2 7665   1.326   2.055   3.722  1.4150  0.8756 -1.9906
 2537SOL     OW 7666   4.465   2.297   4.454  0.2304 -0.4823 -0.2835
 2537SOL    HW1 7667   4.394   2.265   4.398 -0.1415 -1.2119  0.5707
 2537SOL    HW2 7668   4.542   2.249   4.425  0.4759  0.5802 -1.4598
 2538SOL     OW 7669   3.168   2.279   3.550 -0.3360 -0.0529 -0.0360
 2538SOL    HW1 7670   3.236   2.343   3.530 -1.1350  0.4703 -1.1533
 2538SOL    HW2 7671   3.145   2.241   3.466 -1.0927 -0.5687  0.3911
 2539SOL     OW 7672   2.071   1.370   0.105  0.1536  0.1161  0.6328
 2539SOL    HW1 7673   2.165   1.368   0.087 -0.1851 -0.0332 -1.3802
 2539SOL    HW2 7674   2.047   1.277   0.114 -0.7547 -0.5687 -5.2077
 2540SOL     OW 7675   1.076   1.760   0.877 -0.3460  0.1381 -0.0161
 2540SOL    HW1 7676   1.094   1.824   0.946 -0.1667  1.3726 -1.1669
 2540SOL    HW2 7677   1.156   1.708   0.871 -0.4453 -0.1323  0.8409
 2541SOL     OW 7678   2.454   2.888   2.163  0.6147  0.5917 -0.6281
 2541SOL    HW1 7679   2.389   2.878   2.093  1.5288  1.3414 -1.6013
 2541SOL    HW2 7680   2.435   2.815   2.222  0.4227 -0.6367 -2.1282
 2542SOL     OW 7681   2.429   4.987   0.217  0.5559  0.1099 -0.0600
 2542SOL    HW1 7682   2.346   4.985   0.171 -0.6799 -0.5101  2.0765
 2542SOL    HW2 7683   2.473   4.906   0.192  0.6801  0.5614 -1.3912
 2543SOL     OW 7684   1.275   3.076   4.010 -0.3115 -0.0708  0.2583
 2543SOL    HW1 7685   1.295   2.992   4.051  0.1641 -0.5348 -0.8940
 2543SOL    HW2 7686   1.230   3.053   3.929  1.4121  0.7013 -0.9738
 2544SOL     OW 7687   2.997   0.709   1.112  0.2833  0.1260 -0.2273
 2544SOL    HW1 7688   2.919   0.763   1.097 -0.0152 -0.4428 -0.7618
 2544SOL    HW2 7689   3.033   0.742   1.194 -0.2269  0.7458 -0.2427
 2545SOL     OW 7690   0.438   4.724   2.013 -0.4183 -0.3456 -0.1159
 2545SOL    HW1 7691   0.403   4.670   1.942 -1.2689  1.3298 -1.0240
 2545SOL    HW2 7692   0.531   4.705   2.015 -0.6909 -1.8140 -0.4202
 2546SOL     OW 7693   4.208   4.785   3.895  0.3295  0.0456  0.5747
 2546SOL    HW1 7694   4.298   4.771   3.866 -0.1604 -1.8740 -0.1307
 2546SOL    HW2 7695   4.164   4.825   3.820 -0.2562 -2.3972 -0.4833
 2547SOL     OW 7696   2.447   3.949   2.569 -0.2218 -0.0637  0.4286
 2547SOL    HW1 7697   2.466   3.857   2.585 -2.3848 -0.4284  1.2202
 2547SOL    HW2 7698   2.475   3.994   2.649 -1.9099 -0.4910  1.2951
 2548SOL     OW 7699   1.103   0.460   4.002  0.6919 -0.6024  0.2185
 2548SOL    HW1 7700   1.171   0.523   3.979  1.2136 -1.2235  0.0439
 2548SOL    HW2 7701   1.032   0.478   3.941  1.3086 -0.9690 -0.6258
 2549SOL     OW 7702   3.309   1.381   3.904 -0.6313 -0.1998 -0.3410
 2549SOL    HW1 7703   3.242   1.397   3.970  0.0204 -1.0450  0.5771
 2549SOL    HW2 7704   3.308   1.458   3.848 -1.0126  0.6819  0.8422
 2550SOL     OW 7705   2.808   3.268   4.219 -0.1314 -0.3363 -0.3272
 2550SOL    HW1 7706   2.875   3.331   4.243 -0.2411 -0.4755  0.3439
 2550SOL    HW2 7707   2.762   3.310   4.145  0.8081 -0.3353 -0.9263
 2551SOL     OW 7708   3.789   2.276   4.608 -0.2139 -0.1125  0.7388
 2551SOL    HW1 7709   3.817   2.287   4.517  0.5964 -1.7186  0.7674
 2551SOL    HW2 7710   3.767   2.183   4.615 -0.0403 -0.0580  2.2470
 2552SOL     OW 7711   1.521   1.795   2.363  0.0041  0.1070 -0.1076
 2552SOL    HW1 7712   1.512   1.751   2.279 -0.9575 -2.0046  1.0281
 2552SOL    HW2 7713   1.437   1.839   2.376  0.7787  1.9456 -1.0017
 2553SOL     OW 7714   1.596   2.734   1.331  0.2108 -0.2749 -0.0511
 2553SOL    HW1 7715   1.572   2.649   1.366 -0.5796  0.0518  0.2049
 2553SOL    HW2 7716   1.549   2.797   1.385 -2.0573  0.2194 -2.4210
 2554SOL     OW 7717   3.989   0.231   2.553 -0.0184 -0.0353 -0.7760
 2554SOL    HW1 7718   4.078   0.196   2.558 -0.0983 -0.0811  1.6562
 2554SOL    HW2 7719   3.998   0.325   2.565 -0.3448 -0.1996  1.1009
 2555SOL     OW 7720   3.612   4.762   0.219  0.0652 -0.1699 -0.0011
 2555SOL    HW1 7721   3.627   4.856   0.223 -0.5121  0.0423 -1.8368
 2555SOL    HW2 7722   3.587   4.737   0.308 -0.9923  1.6277  0.2459
 2556SOL     OW 7723   0.736   1.505   0.537 -0.1562 -0.3695 -0.3470
 2556SOL    HW1 7724   0.763   1.467   0.621  0.0766  0.9146  0.1717
 2556SOL    HW2 7725   0.669   1.570   0.560  1.8481  2.0021 -0.8243
 2557SOL     OW 7726   0.043   4.167   1.844  0.6522  0.5456 -0.2851
 2557SOL    HW1 7727  -0.011   4.223   1.900  1.4146  1.2680 -0.2496
 2557SOL    HW2 7728  -0.016   4.140   1.774 -0.0318  0.4819  0.3052
 2558SOL     OW 7729   0.688   4.054   4.869 -0.1505 -0.1335  0.2214
 2558SOL    HW1 7730   0.697   4.051   4.964 -0.6851 -0.5864  0.2601
 2558SOL    HW2 7731   0.651   3.969   4.846  0.9904 -0.4533 -0.5048
 2559SOL     OW 7732   3.562   3.781   0.439  0.1749 -0.1167 -0.0768
 2559SOL    HW1 7733   3.540   3.688   0.449 -1.4193  0.2389 -0.1731
 2559SOL    HW2 7734   3.580   3.791   0.345  0.0379 -0.2576 -0.1182
 2560SOL     OW 7735   2.372   0.244   4.666  0.3625 -0.0781  0.6553
 2560SOL    HW1 7736   2.392   0.161   4.710  2.4882  0.6258  1.1190
 2560SOL    HW2 7737   2.370   0.221   4.573 -0.6651 -0.9100  0.8515
 2561SOL     OW 7738   1.742   2.960   4.221  0.8397 -0.1227  0.2733
 2561SOL    HW1 7739   1.655   2.998   4.233  1.8407  2.5365 -0.1625
 2561SOL    HW2 7740   1.726   2.872   4.187 -1.6706 -0.2588  1.5876
 2562SOL     OW 7741   1.009   1.742   4.223  0.1790 -0.0989 -0.3341
 2562SOL    HW1 7742   0.984   1.726   4.315  0.3219  1.1853 -0.0531
 2562SOL    HW2 7743   1.104   1.731   4.222  0.3112  0.8792 -0.0823
 2563SOL     OW 7744   1.014   2.972   1.432  0.2197 -0.6944 -0.1626
 2563SOL    HW1 7745   0.992   2.949   1.342 -0.0144 -0.2348 -0.2272
 2563SOL    HW2 7746   0.931   2.966   1.480  0.3358 -0.9031  0.0156
 2564SOL     OW 7747   1.574   1.020   0.838  0.4148  0.2778 -1.2199
 2564SOL    HW1 7748   1.608   1.103   0.871  0.6460  0.4685 -1.9368
 2564SOL    HW2 7749   1.511   0.992   0.905 -0.9844  1.8898 -1.8036
 2565SOL     OW 7750   4.284   1.656   3.225  0.3595  0.0601  0.1726
 2565SOL    HW1 7751   4.219   1.601   3.270 -0.9769  1.6345  0.2595
 2565SOL    HW2 7752   4.289   1.735   3.279 -0.1883  1.3765 -1.6204
 2566SOL     OW 7753   1.983   4.882   4.012 -0.1858  0.8961  0.3951
 2566SOL    HW1 7754   1.893   4.905   4.036 -0.5096 -1.3066  1.5764
 2566SOL    HW2 7755   2.030   4.879   4.095  0.9276  1.6886 -0.1848
 2567SOL     OW 7756   3.753   4.304   3.972 -0.7500 -0.2172 -0.0619
 2567SOL    HW1 7757   3.800   4.235   4.019 -0.4118  0.0167 -0.0562
 2567SOL    HW2 7758   3.799   4.311   3.888 -0.3478  0.4778  0.2064
 2568SOL     OW 7759   4.034   4.562   2.748  0.0998  0.3055  0.4924
 2568SOL    HW1 7760   4.101   4.544   2.682  0.3821 -0.2208  0.9241
 2568SOL    HW2 7761   4.043   4.655   2.766 -3.1558  1.8335 -3.7937
 2569SOL     OW 7762   0.672   2.840   2.255  0.0782  0.1785 -0.3072
 2569SOL    HW1 7763   0.739   2.774   2.276  1.4719  1.5398 -0.3103
 2569SOL    HW2 7764   0.696   2.916   2.307 -0.0340  1.5237 -2.1204
 2570SOL     OW 7765   4.157   1.216   0.206 -0.0285 -0.0292  0.6518
 2570SOL    HW1 7766   4.112   1.147   0.156  0.2747 -0.5290  1.0600
 2570SOL    HW2 7767   4.088   1.258   0.257 -0.4202  0.7880 -0.5153
 2571SOL     OW 7768   4.395   3.201   1.248  0.0029  0.2859  0.0189
 2571SOL    HW1 7769   4.462   3.233   1.308 -0.0471 -0.8976  0.7392
 2571SOL    HW2 7770   4.330   3.160   1.305 -0.5396  0.0093 -0.7885
 2572SOL     OW 7771   4.172   0.072   1.965  0.7432 -0.0405  0.5820
 2572SOL    HW1 7772   4.081   0.102   1.962 -1.0974 -4.8361  0.3281
 2572SOL    HW2 7773   4.207   0.095   1.879 -1.2509 -0.6090 -0.4491
 2573SOL     OW 7774   0.900   1.505   0.282 -0.0832  0.3554 -0.3804
 2573SOL    HW1 7775   0.910   1.593   0.246 -0.2040  0.6394  0.2575
 2573SOL    HW2 7776   0.849   1.518   0.362  0.2704 -0.2420 -0.0494
 2574SOL     OW 7777   4.254   1.550   2.695  0.0829 -0.2532 -0.0553
 2574SOL    HW1 7778   4.222   1.552   2.785  2.1598 -1.4503  0.7784
 2574SOL    HW2 7779   4.175   1.538   2.642 -1.2181  0.7574  1.5472
 2575SOL     OW 7780   0.681   1.502   4.974 -0.2837 -0.1329  0.2475
 2575SOL    HW1 7781   0.588   1.483   4.990 -0.7152  1.5079 -0.0369
 2575SOL    HW2 7782   0.709   1.435   4.913 -1.8573  0.4550 -1.2267
 2576SOL     OW 7783   3.579   2.731   3.437  0.1625  0.5380 -0.5179
 2576SOL    HW1 7784   3.508   2.791   3.461 -0.3202  0.3185 -1.3619
 2576SOL    HW2 7785   3.656   2.765   3.484 -0.1402  1.7186 -0.8398
 2577SOL     OW 7786   0.941   0.204   4.898 -0.4771 -0.1133  0.0391
 2577SOL    HW1 7787   0.934   0.286   4.946  0.2009  0.4303 -0.7657
 2577SOL    HW2 7788   0.899   0.221   4.814  1.4581  0.1011 -0.9429
 2578SOL     OW 7789   2.666   3.745   2.601  0.2027  0.1814 -0.2746
 2578SOL    HW1 7790   2.744   3.796   2.579  0.6333  0.5654  1.9041
 2578SOL    HW2 7791   2.700   3.660   2.628 -0.0285  0.5478  1.2666
 2579SOL     OW 7792   0.954   4.942  -0.011  0.2403  0.3811 -0.4819
 2579SOL    HW1 7793   0.949   5.036  -0.029 -1.8261  0.1439 -1.5900
 2579SOL    HW2 7794   0.918   4.932   0.077 -0.9245  0.5371 -0.9202
 2580SOL     OW 7795   1.112   2.317   3.016 -0.1058  0.0766  0.2468
 2580SOL    HW1 7796   1.135   2.288   3.105  1.0844  1.8309  0.5493
 2580SOL    HW2 7797   1.022   2.350   3.025 -0.2239 -0.3481  0.6579
 2581SOL     OW 7798   1.371   4.113   0.059  0.3889  0.2985  0.5945
 2581SOL    HW1 7799   1.444   4.092   0.000  1.3596  0.9071  1.5438
 2581SOL    HW2 7800   1.324   4.184   0.014  0.7773  0.3599  0.2757
 2582SOL     OW 7801   2.329   2.020   0.061 -0.1924  0.0293  0.3275
 2582SOL    HW1 7802   2.395   2.062   0.116 -0.5959 -1.1858  1.8239
 2582SOL    HW2 7803   2.246   2.060   0.087 -0.4191 -0.7379  0.8380
 2583SOL     OW 7804   1.092   4.888   3.857  0.0652 -0.2914  0.3530
 2583SOL    HW1 7805   1.026   4.936   3.808  1.1280  0.7551 -0.1107
 2583SOL    HW2 7806   1.060   4.887   3.947  0.0284  1.3593  0.3783
 2584SOL     OW 7807   3.295   1.274   1.049 -0.0027  0.0073 -0.2966
 2584SOL    HW1 7808   3.321   1.186   1.020  0.0519 -0.0366 -0.1176
 2584SOL    HW2 7809   3.200   1.272   1.048 -0.0258  0.4409 -1.7839
 2585SOL     OW 7810   4.037   4.564   3.432  0.2183  0.7403  0.2367
 2585SOL    HW1 7811   4.046   4.488   3.373  0.4786  1.7980 -1.1529
 2585SOL    HW2 7812   4.124   4.605   3.431  0.1022  1.0169  1.0342
 2586SOL     OW 7813   0.070   4.121   2.743 -0.2539 -0.1604 -0.0501
 2586SOL    HW1 7814   0.134   4.192   2.737 -0.1928 -0.1634  0.4683
 2586SOL    HW2 7815  -0.012   4.164   2.766 -0.6394 -0.0665 -1.4900
 2587SOL     OW 7816   1.644   1.617   0.047  0.2224 -0.3965  0.2645
 2587SOL    HW1 7817   1.564   1.579   0.084 -0.8686  1.1696 -0.3710
 2587SOL    HW2 7818   1.708   1.546   0.051 -0.8556 -1.3499  1.8620
 2588SOL     OW 7819   2.911   3.954   4.834  0.1422  0.4404  0.2853
 2588SOL    HW1 7820   2.893   3.979   4.925 -0.0897 -1.7314  0.8829
 2588SOL    HW2 7821   2.826   3.960   4.791  0.5067  2.9658 -0.2469
 2589SOL     OW 7822   3.550   0.801   1.176  0.2521  0.1915 -0.1194
 2589SOL    HW1 7823   3.456   0.801   1.159  0.5731 -0.5704 -2.2060
 2589SOL    HW2 7824   3.566   0.883   1.222 -1.3246  0.6663 -0.3544
 2590SOL     OW 7825   2.983   3.830   4.018 -0.5596 -1.0513  0.1558
 2590SOL    HW1 7826   2.966   3.903   4.077 -0.4044 -0.1203 -0.9209
 2590SOL    HW2 7827   3.076   3.838   3.997 -0.4016 -1.9123  0.4654
 2591SOL     OW 7828   3.635   3.970   2.920  0.4034 -0.5776 -0.2547
 2591SOL    HW1 7829   3.550   3.933   2.941  0.6953 -0.0881  2.0049
 2591SOL    HW2 7830   3.621   4.016   2.837 -1.0919 -1.8184 -0.7538
 2592SOL     OW 7831   2.239   0.409   0.230 -0.0221  0.0655 -0.3117
 2592SOL    HW1 7832   2.208   0.482   0.284  2.3424  1.3821 -0.6167
 2592SOL    HW2 7833   2.321   0.383   0.270  1.1556  0.2278 -2.4708
 2593SOL     OW 7834   2.570   4.923   2.887 -0.0151 -0.3469  0.2022
 2593SOL    HW1 7835   2.607   4.952   2.970 -2.5157  0.2699  1.1928
 2593SOL    HW2 7836   2.636   4.948   2.822  0.2984  2.9176  1.5596
 2594SOL     OW 7837   1.041   3.294   2.905  0.1505  0.0826 -0.3781
 2594SOL    HW1 7838   1.079   3.229   2.965  0.4175  0.1706 -0.4544
 2594SOL    HW2 7839   0.985   3.348   2.961 -0.0143 -0.1631 -0.3007
 2595SOL     OW 7840   1.229   4.513   0.545 -0.1183  0.1100 -0.1139
 2595SOL    HW1 7841   1.214   4.460   0.466  0.0460  0.7276 -0.5669
 2595SOL    HW2 7842   1.203   4.602   0.519  1.2327  0.5828  0.0914
 2596SOL     OW 7843   0.014   0.401   2.124  0.1545 -0.2524 -0.3145
 2596SOL    HW1 7844   0.072   0.385   2.199  0.9129 -1.4137 -1.1131
 2596SOL    HW2 7845   0.029   0.493   2.102 -2.0710  0.9538  2.5528
 2597SOL     OW 7846   0.315   3.295   2.969 -0.2288  0.2227 -0.6165
 2597SOL    HW1 7847   0.407   3.319   2.973 -0.0362 -0.2727 -1.8121
 2597SOL    HW2 7848   0.282   3.312   3.058  1.2426 -0.5645  0.1139
 2598SOL     OW 7849   0.467   1.419   0.681  0.2115 -0.3908 -0.5808
 2598SOL    HW1 7850   0.416   1.429   0.601 -1.9490 -2.3449  0.4394
 2598SOL    HW2 7851   0.416   1.359   0.735  1.6464  0.6930  2.2136
 2599SOL     OW 7852   0.601   0.538   0.857  0.3700  0.6456  0.6124
 2599SOL    HW1 7853   0.611   0.608   0.921  0.2155 -0.7262  2.2284
 2599SOL    HW2 7854   0.576   0.461   0.910 -1.1898 -0.2200 -1.2487
 2600SOL     OW 7855   0.954   4.559   3.461  0.2632 -0.1691 -0.2270
 2600SOL    HW1 7856   0.963   4.580   3.368 -0.1472  3.0191  0.3494
 2600SOL    HW2 7857   1.005   4.625   3.506 -1.1845 -0.3863  1.9084
 2601SOL     OW 7858   4.269   4.070   2.060 -0.2546  0.2284 -0.3147
 2601SOL    HW1 7859   4.320   3.994   2.031 -0.7872 -0.1518 -0.2631
 2601SOL    HW2 7860   4.180   4.037   2.071 -0.7030  1.0665 -1.2040
 2602SOL     OW 7861   1.964   2.838   3.924  0.6137 -0.0730 -0.7172
 2602SOL    HW1 7862   2.006   2.871   4.003  2.0412 -2.0495 -0.5788
 2602SOL    HW2 7863   1.899   2.775   3.956  0.2629  0.0906 -1.0901
 2603SOL     OW 7864   4.702   2.142   0.551  0.4234  0.2295 -0.5207
 2603SOL    HW1 7865   4.607   2.153   0.543  0.2949 -1.1983 -1.2113
 2603SOL    HW2 7866   4.738   2.201   0.484 -0.1150 -1.1997 -2.1305
 2604SOL     OW 7867   4.607   1.847   4.179 -0.2185  0.3890  0.1675
 2604SOL    HW1 7868   4.700   1.859   4.196 -0.1833 -0.7667  0.8506
 2604SOL    HW2 7869   4.578   1.784   4.245 -1.8053  1.7976  0.8969
 2605SOL     OW 7870   2.046   2.663   2.513 -0.6207 -0.2438  0.0034
 2605SOL    HW1 7871   2.077   2.606   2.583  0.1470 -0.0993 -0.2074
 2605SOL    HW2 7872   1.962   2.625   2.486 -0.4674 -0.8416  0.3537
 2606SOL     OW 7873   0.593   0.069   0.438  0.3981  0.6271 -0.2835
 2606SOL    HW1 7874   0.557   0.157   0.421 -0.3825 -0.0122 -2.2760
 2606SOL    HW2 7875   0.521   0.010   0.419  1.5465 -0.5480 -1.1464
 2607SOL     OW 7876   4.724   0.796   3.495 -0.2393 -0.5471 -0.1839
 2607SOL    HW1 7877   4.770   0.881   3.500 -1.8946  0.4036 -0.4276
 2607SOL    HW2 7878   4.789   0.732   3.525  0.6409  0.9531  1.2951
 2608SOL     OW 7879   2.587   2.851   1.892 -0.1270 -0.3423 -0.5321
 2608SOL    HW1 7880   2.604   2.931   1.942 -1.8146  0.3910 -1.0744
 2608SOL    HW2 7881   2.495   2.831   1.908  0.3486 -2.3861 -0.1506
 2609SOL     OW 7882   4.707   2.058   3.919 -0.5894 -0.6439  0.1059
 2609SOL    HW1 7883   4.642   1.996   3.951 -0.0726 -1.0831  0.3210
 2609SOL    HW2 7884   4.765   2.006   3.863  0.0879 -0.4508  0.6145
 2610SOL     OW 7885   3.602   4.014   4.727  0.3528 -0.0036  0.0707
 2610SOL    HW1 7886   3.536   4.019   4.658 -1.0262  0.5472  1.3821
 2610SOL    HW2 7887   3.628   3.922   4.728 -0.3555 -0.2213 -0.5067
 2611SOL     OW 7888   1.166   3.035   3.746 -0.0167  0.3623  0.2873
 2611SOL    HW1 7889   1.255   3.003   3.756  0.7065  1.9455 -0.6386
 2611SOL    HW2 7890   1.166   3.080   3.661 -0.6489  3.5327  1.8154
 2612SOL     OW 7891   3.385   3.858   2.962 -0.1931 -0.0705 -0.2477
 2612SOL    HW1 7892   3.330   3.908   3.022  0.9497 -0.8805  1.5440
 2612SOL    HW2 7893   3.348   3.875   2.875 -1.5885  1.5252  0.6215
 2613SOL     OW 7894   1.157   3.322   2.654  0.3712 -0.0443  0.1684
 2613SOL    HW1 7895   1.064   3.343   2.642  0.7513  0.9578 -1.1546
 2613SOL    HW2 7896   1.163   3.296   2.746 -0.7394  2.4855  1.0362
 2614SOL     OW 7897   2.769   4.600   0.620 -0.1890  0.4563 -0.1748
 2614SOL    HW1 7898   2.709   4.673   0.629 -0.8423 -0.0194 -0.5754
 2614SOL    HW2 7899   2.856   4.639   0.627 -0.5440  1.0927  0.8566
 2615SOL     OW 7900   0.110   0.353   4.109  0.5018 -0.3048  0.2649
 2615SOL    HW1 7901   0.026   0.368   4.065 -0.0914 -1.8691  0.8076
 2615SOL    HW2 7902   0.087   0.303   4.187  1.7639  0.6671  1.3059
 2616SOL     OW 7903   2.637   3.515   1.419 -0.3624 -0.0891 -0.5049
 2616SOL    HW1 7904   2.598   3.601   1.434 -1.2411 -0.7866  1.5622
 2616SOL    HW2 7905   2.630   3.470   1.503  4.1286 -0.6252 -0.1682
 2617SOL     OW 7906   4.447   2.176   2.598 -0.6415  0.5222 -0.6424
 2617SOL    HW1 7907   4.412   2.241   2.659  0.7447 -1.1248  2.1376
 2617SOL    HW2 7908   4.397   2.097   2.616  0.2950 -0.1930 -1.0702
 2618SOL     OW 7909   4.894   2.023   2.708  0.4489 -0.2552 -0.3379
 2618SOL    HW1 7910   4.949   1.952   2.741 -1.8786 -1.4253  1.3331
 2618SOL    HW2 7911   4.877   2.077   2.785 -0.0498  0.5715 -1.0138
 2619SOL     OW 7912   4.823   2.360   1.344 -0.3649  1.1085 -0.1153
 2619SOL    HW1 7913   4.795   2.394   1.429  2.4433 -2.6178  2.6434
 2619SOL    HW2 7914   4.919   2.365   1.346 -0.0065 -2.2705 -1.3740
 2620SOL     OW 7915   1.784   2.431   1.286  0.0950 -0.0585 -0.5241
 2620SOL    HW1 7916   1.688   2.434   1.296  0.1011 -0.3517 -0.3476
 2620SOL    HW2 7917   1.797   2.426   1.191 -0.0012  1.6360 -0.6513
 2621SOL     OW 7918   3.309   1.887   1.672  0.1637  0.6139 -0.9657
 2621SOL    HW1 7919   3.355   1.963   1.637  0.5985 -0.0033 -1.7606
 2621SOL    HW2 7920   3.237   1.924   1.723  2.2150  1.6642  1.3931
 2622SOL     OW 7921   3.716   1.921   3.953 -0.2725  0.2654  0.2223
 2622SOL    HW1 7922   3.810   1.920   3.931  0.2561  0.0297  2.2472
 2622SOL    HW2 7923   3.710   1.868   4.033 -2.4071 -1.1030 -0.7597
 2623SOL     OW 7924   0.494   0.390   4.902 -0.3110  0.4935  0.4263
 2623SOL    HW1 7925   0.443   0.404   4.982  0.9066 -0.8268  1.4771
 2623SOL    HW2 7926   0.487   0.296   4.886 -0.3453  0.7118 -0.9074
 2624SOL     OW 7927   0.339   0.495   0.529 -0.1918 -0.2697 -0.7248
 2624SOL    HW1 7928   0.421   0.454   0.557  0.3978  0.3998 -1.4512
 2624SOL    HW2 7929   0.314   0.551   0.603  2.0650  2.5378 -1.9447
 2625SOL     OW 7930   0.429   1.249   4.806 -0.0272 -0.0366 -0.0259
 2625SOL    HW1 7931   0.524   1.250   4.796 -0.1933  0.5127 -1.9090
 2625SOL    HW2 7932   0.415   1.265   4.900  1.7204  0.0884  0.2546
 2626SOL     OW 7933   0.405   1.401   1.043 -0.0360 -0.4758  0.7490
 2626SOL    HW1 7934   0.370   1.450   1.119  0.2380  0.5030  0.2633
 2626SOL    HW2 7935   0.327   1.380   0.991 -0.2971 -1.6968  1.5883
 2627SOL     OW 7936   0.504   2.567   2.368 -0.1010  0.3751  0.1908
 2627SOL    HW1 7937   0.416   2.603   2.357  0.3298  1.2632 -0.4701
 2627SOL    HW2 7938   0.526   2.531   2.282  0.3772  0.6122  0.2104
 2628SOL     OW 7939   3.760   3.262   4.018 -0.2830  0.8265 -0.3345
 2628SOL    HW1 7940   3.761   3.269   4.113 -1.1991  2.2804 -0.3902
 2628SOL    HW2 7941   3.843   3.221   3.995 -0.3894 -0.2606  1.1254
 2629SOL     OW 7942   1.984   1.154   0.479 -0.0697  0.1025 -0.0785
 2629SOL    HW1 7943   2.080   1.157   0.474 -0.0313  0.3470  0.6282
 2629SOL    HW2 7944   1.965   1.070   0.522 -0.2489 -0.6282 -1.5221
 2630SOL     OW 7945   2.859   4.524   2.331 -0.0787  0.1527 -0.1891
 2630SOL    HW1 7946   2.779   4.523   2.279  0.6768 -0.9235 -1.3779
 2630SOL    HW2 7947   2.833   4.488   2.416 -0.5369 -1.7920 -1.1104
 2631SOL     OW 7948   4.132   4.619   1.205  0.3619  0.5333 -0.0596
 2631SOL    HW1 7949   4.186   4.593   1.278  0.8943 -0.6300 -0.8491
 2631SOL    HW2 7950   4.130   4.715   1.209 -0.5743  0.4724  2.1282
 2632SOL     OW 7951   1.039   3.461   3.936  0.8673 -0.5638 -0.1951
 2632SOL    HW1 7952   1.030   3.520   4.011 -1.6593 -0.7680 -0.2599
 2632SOL    HW2 7953   1.041   3.519   3.860 -0.6607 -0.4591 -0.1942
 2633SOL     OW 7954   4.178   1.699   1.262  0.3152 -0.0913  0.5024
 2633SOL    HW1 7955   4.204   1.784   1.299  2.2233 -0.0705 -0.7182
 2633SOL    HW2 7956   4.085   1.709   1.243  0.3658  1.5347  0.9155
 2634SOL     OW 7957   3.812   2.467   4.786 -0.1488 -0.1611 -0.4054
 2634SOL    HW1 7958   3.827   2.383   4.743  0.8198 -0.1505 -0.0967
 2634SOL    HW2 7959   3.891   2.483   4.837 -1.1088  0.0183  1.0955
 2635SOL     OW 7960   4.502   1.828   2.432 -0.5899 -0.4218  0.1803
 2635SOL    HW1 7961   4.502   1.748   2.484 -0.2033 -0.8896 -0.5235
 2635SOL    HW2 7962   4.569   1.883   2.471  1.1736 -1.5998 -1.0344
 2636SOL     OW 7963   0.847   2.149   3.481 -0.1076  0.6327  0.4971
 2636SOL    HW1 7964   0.773   2.090   3.498  0.0991  0.3796  0.5140
 2636SOL    HW2 7965   0.809   2.237   3.491 -0.6526  0.5310 -0.5054
 2637SOL     OW 7966   3.053   1.962   0.873 -0.2745  0.4036  0.3071
 2637SOL    HW1 7967   3.064   2.016   0.795  0.4220  0.9533  0.7800
 2637SOL    HW2 7968   3.024   1.877   0.840  3.2123 -0.4664 -0.8548
 2638SOL     OW 7969   0.897   4.178   4.695  0.0907  0.3832  0.3678
 2638SOL    HW1 7970   0.926   4.232   4.768 -1.2315  1.4951  0.0890
 2638SOL    HW2 7971   0.806   4.157   4.714  0.6042 -2.0304  0.6110
 2639SOL     OW 7972   3.962   0.414   0.673 -0.0060 -0.4660  0.1345
 2639SOL    HW1 7973   4.015   0.491   0.652 -0.8305  0.2688  0.6663
 2639SOL    HW2 7974   3.933   0.430   0.763 -0.3384 -1.3232  0.1858
 2640SOL     OW 7975   1.899   2.273   3.662 -0.1336 -0.3376 -0.0766
 2640SOL    HW1 7976   1.959   2.214   3.707 -1.2665 -2.3008 -0.9957
 2640SOL    HW2 7977   1.822   2.219   3.644 -1.6199  1.7000 -0.1748
 2641SOL     OW 7978   2.686   0.752   0.257  0.3154  0.1577 -0.1034
 2641SOL    HW1 7979   2.628   0.691   0.211 -1.5483  0.2163  2.0517
 2641SOL    HW2 7980   2.731   0.698   0.322  1.8049  0.3764 -0.8802
 2642SOL     OW 7981   0.507   4.789   1.705 -0.3738 -0.1612  0.4953
 2642SOL    HW1 7982   0.444   4.823   1.642  0.8376 -0.5338 -0.9791
 2642SOL    HW2 7983   0.460   4.719   1.750 -0.3962 -2.0341 -2.1946
 2643SOL     OW 7984   0.207   3.267   4.286 -0.0642 -0.2712  0.4906
 2643SOL    HW1 7985   0.272   3.228   4.344  0.2140  1.9060  1.7327
 2643SOL    HW2 7986   0.215   3.361   4.300 -3.4074  0.1174  0.6168
 2644SOL     OW 7987   0.117   0.715   4.119  0.2952 -0.3170 -0.4122
 2644SOL    HW1 7988   0.023   0.699   4.105 -0.0445  0.6902  0.5582
 2644SOL    HW2 7989   0.152   0.631   4.148 -0.2598 -0.7473 -0.9500
 2645SOL     OW 7990   4.258   3.117   0.173 -0.2539 -0.5631  0.1861
 2645SOL    HW1 7991   4.316   3.139   0.099  0.2148  1.8138  1.1734
 2645SOL    HW2 7992   4.171   3.145   0.143 -0.7503 -2.9341 -0.7904
 2646SOL     OW 7993   0.365   3.618   2.413  0.4853  0.2618 -0.0027
 2646SOL    HW1 7994   0.291   3.609   2.473  0.2992 -2.2566 -0.5074
 2646SOL    HW2 7995   0.435   3.656   2.466  0.9769 -3.5846  2.5052
 2647SOL     OW 7996   4.468   4.322   2.603  0.3177  0.1689 -0.3954
 2647SOL    HW1 7997   4.418   4.265   2.662 -1.0791  2.9016  1.2851
 2647SOL    HW2 7998   4.559   4.307   2.628 -0.1649  0.3121  1.6835
 2648SOL     OW 7999   4.783   4.979   0.494  0.4445  0.0658 -0.2857
 2648SOL    HW1 8000   4.774   4.918   0.568 -1.8818 -2.9487 -2.7875
 2648SOL    HW2 8001   4.703   5.032   0.497  0.0355 -0.4938 -0.9256
 2649SOL     OW 8002   4.341   0.185   2.765  0.2685 -0.2158  0.4515
 2649SOL    HW1 8003   4.274   0.248   2.792  0.4073  0.7146 -1.1854
 2649SOL    HW2 8004   4.353   0.203   2.671  1.9333 -1.1788  0.4476
 2650SOL     OW 8005   0.545   3.436   1.026 -0.3049 -0.0632 -0.1405
 2650SOL    HW1 8006   0.634   3.429   0.992 -1.1556 -2.7149 -2.1910
 2650SOL    HW2 8007   0.551   3.403   1.116  0.8663  0.4625 -0.0085
 2651SOL     OW 8008   1.007   3.939   4.857 -0.2577 -0.2140  0.0236
 2651SOL    HW1 8009   0.930   3.973   4.812  0.4007 -3.1955 -3.9709
 2651SOL    HW2 8010   0.972   3.880   4.924 -1.4924 -0.3678 -0.7299
 2652SOL     OW 8011   4.842   3.898   0.022 -0.0419 -0.6441  0.0288
 2652SOL    HW1 8012   4.905   3.896   0.095  1.6170 -0.2196 -1.3098
 2652SOL    HW2 8013   4.800   3.984   0.029  1.1859  0.0119 -0.3279
 2653SOL     OW 8014   0.832   0.372   4.679 -0.3750 -0.2264 -0.3525
 2653SOL    HW1 8015   0.812   0.443   4.741 -0.7872  1.3006 -2.1335
 2653SOL    HW2 8016   0.875   0.416   4.606  0.9183 -2.1053 -0.7887
 2654SOL     OW 8017   4.528   1.583   1.741  0.4843  0.5116  0.0165
 2654SOL    HW1 8018   4.488   1.667   1.717  0.8892  0.3128 -1.4588
 2654SOL    HW2 8019   4.480   1.518   1.690  1.6825  0.1153 -0.6450
 2655SOL     OW 8020   2.650   1.070   2.872 -0.4159  0.4222  0.2364
 2655SOL    HW1 8021   2.718   1.008   2.845 -1.4687 -0.5569 -0.2051
 2655SOL    HW2 8022   2.693   1.123   2.940  0.8496 -0.0316 -0.1711
 2656SOL     OW 8023   3.431   0.129   1.205 -0.0244 -0.1946  0.2781
 2656SOL    HW1 8024   3.463   0.208   1.160  2.0183 -1.8341 -1.3817
 2656SOL    HW2 8025   3.391   0.077   1.135 -2.2988 -0.2243  1.5421
 2657SOL     OW 8026   2.414   1.207   1.390  0.1756 -0.3516  0.8758
 2657SOL    HW1 8027   2.321   1.187   1.399  0.4041 -1.6494  0.5672
 2657SOL    HW2 8028   2.435   1.259   1.468 -1.1488  1.4102  0.1287
 2658SOL     OW 8029   3.589   3.156   0.371  0.0332 -0.1893  0.2500
 2658SOL    HW1 8030   3.600   3.065   0.399  0.9272  0.5673  2.5964
 2658SOL    HW2 8031   3.634   3.161   0.286  0.9248 -1.6856  0.5961
 2659SOL     OW 8032   4.342   1.117   0.923  0.4395  0.5523 -0.0023
 2659SOL    HW1 8033   4.256   1.139   0.890  1.8237  3.0278 -2.3179
 2659SOL    HW2 8034   4.379   1.057   0.858  0.5508 -0.4206  0.9202
 2660SOL     OW 8035   0.038   2.795   2.134 -0.4640 -0.1122 -0.9066
 2660SOL    HW1 8036  -0.011   2.713   2.123 -1.2000 -0.2478  2.4741
 2660SOL    HW2 8037  -0.027   2.857   2.168  0.8669  0.8467 -0.0281
 2661SOL     OW 8038   1.055   3.430   0.302  0.3677  0.0177  0.2615
 2661SOL    HW1 8039   1.088   3.346   0.334  0.8731 -0.0181 -0.3344
 2661SOL    HW2 8040   1.098   3.442   0.217  1.4426  1.5741  0.9822
 2662SOL     OW 8041   2.021   3.766   0.036  0.5213 -1.0021  0.4158
 2662SOL    HW1 8042   2.013   3.677   0.069 -1.2575 -0.1316  2.5990
 2662SOL    HW2 8043   1.979   3.821   0.102 -0.4326  1.2623 -1.8603
 2663SOL     OW 8044   1.391   2.962   2.959 -0.2592 -0.5950 -0.1423
 2663SOL    HW1 8045   1.380   3.004   2.873 -0.9475 -0.7713 -0.1491
 2663SOL    HW2 8046   1.463   2.900   2.946  0.2657  0.0365 -0.3324
 2664SOL     OW 8047   0.672   4.379   3.417  0.1314 -0.2260  0.2308
 2664SOL    HW1 8048   0.758   4.415   3.396 -0.1188  0.3744  0.2233
 2664SOL    HW2 8049   0.622   4.454   3.449 -0.0888 -0.7475  1.1674
 2665SOL     OW 8050   1.169   0.103   1.049 -0.4969  0.3972  0.1271
 2665SOL    HW1 8051   1.230   0.029   1.043 -1.3667 -0.4767  1.5568
 2665SOL    HW2 8052   1.093   0.075   0.997 -1.2328 -0.1900  1.4495
 2666SOL     OW 8053   0.173   3.488   3.877  0.3559 -1.0314 -0.9516
 2666SOL    HW1 8054   0.125   3.515   3.799  2.8757 -0.7223 -2.5171
 2666SOL    HW2 8055   0.140   3.400   3.896 -0.8710 -0.7987 -1.8633
 2667SOL     OW 8056   1.494   3.522   0.125 -0.6037 -0.1646  0.7913
 2667SOL    HW1 8057   1.486   3.612   0.156 -2.0580 -0.1457  0.4320
 2667SOL    HW2 8058   1.499   3.530   0.030 -1.7057 -0.4924  0.6935
 2668SOL     OW 8059   4.270   2.586   1.356 -0.3814 -0.1722  0.1867
 2668SOL    HW1 8060   4.260   2.492   1.344  1.1673 -0.1950 -1.2668
 2668SOL    HW2 8061   4.210   2.625   1.292 -0.3439 -0.1858  0.1433
 2669SOL     OW 8062   3.844   3.205   0.710  0.9286  0.4202 -0.4701
 2669SOL    HW1 8063   3.906   3.134   0.692 -0.2882 -0.2601 -2.1752
 2669SOL    HW2 8064   3.855   3.222   0.804  3.4017  0.0794 -0.6246
 2670SOL     OW 8065   3.584   0.845   2.167  0.0496 -0.0357  0.2609
 2670SOL    HW1 8066   3.621   0.843   2.255  0.3311  0.8318  0.1725
 2670SOL    HW2 8067   3.616   0.765   2.125 -0.0228 -0.4159  0.9116
 2671SOL     OW 8068   3.120   2.767   3.512 -0.4348  0.0146  0.9066
 2671SOL    HW1 8069   3.101   2.859   3.496 -4.4069 -0.4424  1.8516
 2671SOL    HW2 8070   3.200   2.768   3.565  1.2607  2.6272 -1.4267
 2672SOL     OW 8071   1.416   2.481   1.103  0.7808  0.2383 -0.0380
 2672SOL    HW1 8072   1.353   2.536   1.056  1.5327  0.8670 -0.3267
 2672SOL    HW2 8073   1.501   2.521   1.086  1.2654 -0.5762  0.3810
 2673SOL     OW 8074   1.354   0.654   4.411  0.4603  0.2501 -0.0239
 2673SOL    HW1 8075   1.440   0.616   4.432  1.3801  0.7796 -2.4613
 2673SOL    HW2 8076   1.375   0.740   4.374 -1.2452  0.9636  0.5665
 2674SOL     OW 8077   0.659   2.045   2.307  0.8375  0.2646 -0.1304
 2674SOL    HW1 8078   0.613   2.071   2.227  1.9560 -1.0909 -1.2725
 2674SOL    HW2 8079   0.612   1.968   2.338  0.3798  0.8126  0.5715
 2675SOL     OW 8080   3.744   1.078   0.693  0.2506 -0.0930  0.6488
 2675SOL    HW1 8081   3.720   1.164   0.730 -0.9176  0.2281 -0.7829
 2675SOL    HW2 8082   3.737   1.018   0.768 -1.0990  0.6983  1.2044
 2676SOL     OW 8083   2.053   4.247   1.774  0.2154  0.6031  0.0107
 2676SOL    HW1 8084   1.971   4.199   1.758  0.2755 -0.1198  1.6906
 2676SOL    HW2 8085   2.108   4.225   1.699 -0.6914  0.1388 -0.5449
 2677SOL     OW 8086   2.077   2.939   2.012  0.5909  0.2702 -0.3015
 2677SOL    HW1 8087   2.035   3.016   1.974 -0.8899 -0.7076 -0.7161
 2677SOL    HW2 8088   2.070   2.951   2.106 -1.5827 -0.3004 -0.3249
 2678SOL     OW 8089   2.842   1.101   1.196 -0.2011 -0.3681 -0.1536
 2678SOL    HW1 8090   2.824   1.033   1.131 -0.7444  0.8260 -1.3044
 2678SOL    HW2 8091   2.804   1.068   1.277 -1.0216 -1.1566 -0.8409
 2679SOL     OW 8092   4.793   0.406   0.598  0.0826 -0.6927  0.3073
 2679SOL    HW1 8093   4.726   0.403   0.666  0.8093  0.1182  1.0732
 2679SOL    HW2 8094   4.874   0.383   0.643  0.7472  0.8413 -0.0394
 2680SOL     OW 8095   1.976   4.988   3.763 -0.2544  0.1102  0.2433
 2680SOL    HW1 8096   2.046   4.939   3.719 -0.1162  1.3679 -1.0262
 2680SOL    HW2 8097   1.983   4.962   3.855 -0.4871 -2.5516 -0.4113
 2681SOL     OW 8098   1.310   4.885   2.550  0.0408 -0.1576 -0.0434
 2681SOL    HW1 8099   1.393   4.931   2.536  0.3093 -0.5222  0.3196
 2681SOL    HW2 8100   1.308   4.868   2.644 -0.5899  0.1129 -0.0083
 2682SOL     OW 8101   4.436   1.699   4.355 -0.2649  0.3783  0.3526
 2682SOL    HW1 8102   4.493   1.637   4.311 -1.0176  0.2868 -0.5254
 2682SOL    HW2 8103   4.469   1.703   4.445  0.3408 -0.6103  0.1823
 2683SOL     OW 8104   0.228   0.784   3.301 -0.6879 -0.9956 -0.5284
 2683SOL    HW1 8105   0.213   0.822   3.214  1.3895  2.6435  0.4950
 2683SOL    HW2 8106   0.211   0.856   3.362  2.7495 -1.8083  1.7102
 2684SOL     OW 8107   3.630   4.411   2.799 -0.1794 -0.7363  0.1646
 2684SOL    HW1 8108   3.575   4.335   2.781 -1.6781  0.5929 -1.2279
 2684SOL    HW2 8109   3.679   4.426   2.719  1.1022 -0.9879  0.8775
 2685SOL     OW 8110   4.224   3.739   4.352  0.5794 -0.2671  0.0907
 2685SOL    HW1 8111   4.318   3.726   4.368  0.5169 -1.6196 -0.4679
 2685SOL    HW2 8112   4.218   3.827   4.315  1.3313  0.7953  2.3130
 2686SOL     OW 8113   4.370   2.341   3.666 -0.2565 -0.2796 -0.3024
 2686SOL    HW1 8114   4.304   2.291   3.619 -0.7483 -0.4324  0.5326
 2686SOL    HW2 8115   4.348   2.329   3.758  0.4109  0.3926 -0.0464
 2687SOL     OW 8116   1.192   1.403   3.949 -0.8068 -0.1334  0.0942
 2687SOL    HW1 8117   1.244   1.380   4.026  0.4345  1.6107 -0.1707
 2687SOL    HW2 8118   1.237   1.478   3.910 -2.9775  0.8552 -0.7179
 2688SOL     OW 8119   2.168   0.338   3.881  0.5883  0.5165  0.3793
 2688SOL    HW1 8120   2.259   0.362   3.899  1.1511 -2.1644  1.5880
 2688SOL    HW2 8121   2.146   0.274   3.949 -1.8095  0.1680 -0.6160
 2689SOL     OW 8122   2.399   0.872   2.498  0.3823  0.2795 -0.3610
 2689SOL    HW1 8123   2.315   0.915   2.509 -0.0895 -0.9920  1.6276
 2689SOL    HW2 8124   2.426   0.893   2.408 -0.4518  3.4224  0.0068
 2690SOL     OW 8125   2.290   2.382   2.854 -0.0218 -0.5299 -0.3139
 2690SOL    HW1 8126   2.324   2.457   2.805 -0.2421 -1.0276 -1.2503
 2690SOL    HW2 8127   2.358   2.315   2.846  1.0292  0.1507  2.0924
 2691SOL     OW 8128   3.489   0.646   3.407  0.4705  0.5483  0.0340
 2691SOL    HW1 8129   3.520   0.564   3.368 -1.6334  0.7938 -2.4661
 2691SOL    HW2 8130   3.433   0.618   3.480  1.0526 -0.1268  0.2368
 2692SOL     OW 8131   1.920   4.512   3.299 -0.3887  0.3637 -0.0329
 2692SOL    HW1 8132   1.843   4.474   3.256  0.3204  0.8677 -1.8259
 2692SOL    HW2 8133   1.899   4.508   3.392 -2.0013 -0.7629 -0.3967
 2693SOL     OW 8134   2.401   2.412   1.348 -0.1391  0.1248  0.3405
 2693SOL    HW1 8135   2.446   2.427   1.265 -3.8765 -0.5604 -2.0769
 2693SOL    HW2 8136   2.383   2.499   1.382 -0.6496  0.5258 -0.8986
 2694SOL     OW 8137   1.070   0.957   2.468 -0.2490  0.0399  0.6526
 2694SOL    HW1 8138   1.040   0.986   2.382  1.1468 -0.1574  0.0702
 2694SOL    HW2 8139   1.008   0.995   2.530 -0.7432  0.9484 -0.3794
 2695SOL     OW 8140   3.363   4.155   3.596 -0.1313 -0.5041  0.0798
 2695SOL    HW1 8141   3.334   4.069   3.566 -1.1182 -0.2706  0.3213
 2695SOL    HW2 8142   3.334   4.215   3.528  0.8620 -0.3834 -0.2583
 2696SOL     OW 8143   4.850   1.264   2.764 -0.5714  0.2363  0.1366
 2696SOL    HW1 8144   4.911   1.196   2.737 -0.7527  0.2333 -0.2704
 2696SOL    HW2 8145   4.906   1.338   2.790 -0.3432 -0.2900  1.2451
 2697SOL     OW 8146   4.746   1.287   2.017 -0.1228  0.2178 -0.1185
 2697SOL    HW1 8147   4.731   1.376   1.985  0.7857  0.0544 -1.0602
 2697SOL    HW2 8148   4.730   1.231   1.941  0.0640 -0.3565  0.2591
 2698SOL     OW 8149   4.231   2.027   2.962 -0.1166  0.6645 -0.7311
 2698SOL    HW1 8150   4.307   1.974   2.939  0.8008  0.3897  2.4635
 2698SOL    HW2 8151   4.158   1.965   2.963  0.4072  0.0305  0.0872
 2699SOL     OW 8152   0.527   0.282   1.292 -0.7170  0.3066 -0.0950
 2699SOL    HW1 8153   0.570   0.368   1.297  1.5998 -0.7376 -0.8573
 2699SOL    HW2 8154   0.457   0.287   1.357 -1.4296  3.1702 -0.9297
 2700SOL     OW 8155   1.113   4.622   4.595 -0.2707  0.0878  0.1393
 2700SOL    HW1 8156   1.149   4.692   4.649 -0.2921  0.3169 -0.1408
 2700SOL    HW2 8157   1.162   4.627   4.513 -0.6044  0.0914 -0.0628
 2701SOL     OW 8158   0.063   1.555   4.720  0.2379 -0.2365  0.2270
 2701SOL    HW1 8159   0.133   1.490   4.717  0.3793 -0.1509  1.3160
 2701SOL    HW2 8160   0.089   1.622   4.657 -0.5164 -1.7931 -1.8820
 2702SOL     OW 8161   0.357   0.519   4.232 -0.3783 -0.1972  0.0748
 2702SOL    HW1 8162   0.425   0.490   4.172  1.4762 -1.6575  2.6847
 2702SOL    HW2 8163   0.286   0.456   4.221  0.2741 -0.9243 -0.0209
 2703SOL     OW 8164   1.128   3.412   5.010  0.6292  0.4198  0.0136
 2703SOL    HW1 8165   1.046   3.440   4.970  0.2855 -1.1602 -0.4771
 2703SOL    HW2 8166   1.196   3.441   4.950  0.2121 -0.6853 -1.0500
 2704SOL     OW 8167   3.885   1.491   1.714  0.4411 -0.1481 -0.0104
 2704SOL    HW1 8168   3.917   1.560   1.655  0.7693  0.9343  1.3774
 2704SOL    HW2 8169   3.962   1.469   1.767 -0.7009  1.5755  2.5191
 2705SOL     OW 8170   4.490   1.587   2.145  0.0343 -0.4486  0.0662
 2705SOL    HW1 8171   4.438   1.652   2.194 -0.5933 -0.9838  0.1185
 2705SOL    HW2 8172   4.537   1.539   2.213  0.2463 -0.2694  0.0482
 2706SOL     OW 8173   0.815   2.439   2.289 -0.1745  0.8573  0.1675
 2706SOL    HW1 8174   0.723   2.457   2.269 -0.1156  0.3089 -0.6517
 2706SOL    HW2 8175   0.852   2.408   2.206  1.2275  2.8330  0.0088
 2707SOL     OW 8176   0.688   1.617   3.502 -0.2586  0.0329 -0.3487
 2707SOL    HW1 8177   0.649   1.565   3.572 -0.2108  0.9856  0.3997
 2707SOL    HW2 8178   0.669   1.707   3.526  0.1274  0.3963 -1.3533
 2708SOL     OW 8179   1.557   4.026   3.928  0.0639 -0.1498  0.4297
 2708SOL    HW1 8180   1.518   4.084   3.862 -0.0313 -0.0548  0.5687
 2708SOL    HW2 8181   1.535   4.067   4.012  0.6960  0.0488  0.5037
 2709SOL     OW 8182   0.363   2.728   3.750 -0.3227 -0.6455  0.1895
 2709SOL    HW1 8183   0.283   2.751   3.704  0.3053 -0.1131 -0.6726
 2709SOL    HW2 8184   0.380   2.803   3.807 -1.7567 -1.8129  2.2804
 2710SOL     OW 8185   4.952   3.766   2.161 -0.7177 -0.4759  0.6448
 2710SOL    HW1 8186   4.932   3.702   2.228  1.5291 -0.6714  1.2012
 2710SOL    HW2 8187   5.046   3.757   2.145 -0.6081  1.6217 -0.3643
 2711SOL     OW 8188   0.057   1.859   3.165 -0.7140  0.1186 -0.4758
 2711SOL    HW1 8189   0.138   1.827   3.126 -0.9090  1.1807 -1.8331
 2711SOL    HW2 8190   0.083   1.938   3.212 -1.0850  1.0576 -1.7844
 2712SOL     OW 8191   4.792   2.982   4.782  0.1032  0.0096  1.1175
 2712SOL    HW1 8192   4.825   2.911   4.728 -1.3454 -0.7826  1.2174
 2712SOL    HW2 8193   4.715   3.014   4.734 -0.4789  0.1151  2.0951
 2713SOL     OW 8194   3.454   3.414   1.425  0.3000 -0.1929  0.2225
 2713SOL    HW1 8195   3.497   3.475   1.365 -0.3860  1.1944  1.1132
 2713SOL    HW2 8196   3.466   3.452   1.512  2.0158 -2.5993  1.1393
 2714SOL     OW 8197   4.075   2.574   2.094  0.2335 -0.0053  0.1731
 2714SOL    HW1 8198   4.143   2.640   2.104  1.0566 -0.9289  0.9769
 2714SOL    HW2 8199   4.004   2.618   2.048  0.8811  1.3364  0.4257
 2715SOL     OW 8200   2.534   0.367   4.837  0.3974 -0.2268  0.2183
 2715SOL    HW1 8201   2.478   0.320   4.775  1.7806 -1.0173 -0.4590
 2715SOL    HW2 8202   2.541   0.309   4.912 -1.5476  0.8710  1.3219
 2716SOL     OW 8203   4.112   1.178   2.557  0.0376 -0.6271 -0.3633
 2716SOL    HW1 8204   4.085   1.145   2.471  0.5232 -1.2704 -0.2794
 2716SOL    HW2 8205   4.187   1.123   2.581  0.8401  0.5212 -0.1820
 2717SOL     OW 8206   4.423   0.995   2.953 -0.1472  0.0610 -0.3717
 2717SOL    HW1 8207   4.518   1.001   2.937 -0.2151  3.1904 -0.1758
 2717SOL    HW2 8208   4.412   0.911   2.997  2.6991  0.0468  0.5611
 2718SOL     OW 8209   0.798   2.452   3.941 -0.1564  0.4302 -0.3166
 2718SOL    HW1 8210   0.716   2.403   3.937  0.0777 -0.0871  0.6720
 2718SOL    HW2 8211   0.851   2.404   4.005  0.1340  1.8893  0.5948
 2719SOL     OW 8212   2.657   3.245   3.847 -0.2047 -0.4386 -0.1462
 2719SOL    HW1 8213   2.739   3.205   3.819  0.0943 -0.3910  0.6585
 2719SOL    HW2 8214   2.683   3.318   3.902 -0.6815  1.8772 -2.7515
 2720SOL     OW 8215   3.385   1.352   1.293 -0.5528 -0.0193  0.1905
 2720SOL    HW1 8216   3.480   1.352   1.299 -0.6283  0.1207  3.4130
 2720SOL    HW2 8217   3.366   1.329   1.202  2.5282 -0.9789 -0.3184
 2721SOL     OW 8218   1.153   2.232   1.074 -0.0600 -0.3070 -0.0384
 2721SOL    HW1 8219   1.233   2.284   1.081 -0.1538 -0.0459 -0.8036
 2721SOL    HW2 8220   1.178   2.157   1.020 -0.8005  0.7899 -1.9981
 2722SOL     OW 8221   3.826   4.659   4.191 -0.5431  0.4148 -0.3322
 2722SOL    HW1 8222   3.807   4.631   4.101  0.7551 -1.7891 -0.0092
 2722SOL    HW2 8223   3.919   4.683   4.189 -0.3469 -0.2347  0.5259
 2723SOL     OW 8224   2.398   3.020   4.551  0.2128  0.1407  0.1425
 2723SOL    HW1 8225   2.317   3.034   4.601 -0.3713  0.3414 -0.8308
 2723SOL    HW2 8226   2.395   2.928   4.525 -0.2885  0.4238 -0.8609
 2724SOL     OW 8227   2.409   1.407   3.263  0.5313  0.4280 -0.3029
 2724SOL    HW1 8228   2.472   1.398   3.335  0.1737 -1.4023 -0.1505
 2724SOL    HW2 8229   2.325   1.420   3.306 -0.1828 -3.4814 -0.0752
 2725SOL     OW 8230   1.524   1.976   0.285 -0.2190 -0.4014  0.1600
 2725SOL    HW1 8231   1.481   2.048   0.330 -0.7859 -1.9102  2.1891
 2725SOL    HW2 8232   1.601   2.015   0.244 -1.5012  1.6689 -0.4285
 2726SOL     OW 8233   4.794   0.918   3.800  0.0273 -0.6316  0.0236
 2726SOL    HW1 8234   4.833   0.958   3.723  1.1612 -0.9396  0.4140
 2726SOL    HW2 8235   4.706   0.957   3.806 -0.4665 -1.3143 -1.9472
 2727SOL     OW 8236   2.004   3.389   2.543  0.7166  0.1060 -0.4255
 2727SOL    HW1 8237   1.951   3.457   2.500  0.5295  0.2232 -0.0082
 2727SOL    HW2 8238   1.943   3.345   2.602  1.5283  1.6204  1.6819
 2728SOL     OW 8239   4.746   1.870   1.503  0.8262 -0.0351  0.6117
 2728SOL    HW1 8240   4.694   1.897   1.579 -0.4613  0.7900 -0.5200
 2728SOL    HW2 8241   4.813   1.937   1.495  0.3088  0.4646  0.4023
 2729SOL     OW 8242   4.662   2.863   1.794 -0.2090 -0.0243 -0.0080
 2729SOL    HW1 8243   4.661   2.957   1.816 -1.5396  0.2343 -1.0591
 2729SOL    HW2 8244   4.672   2.861   1.699 -0.8977 -0.9226 -0.0732
 2730SOL     OW 8245   3.426   4.198   2.962  0.2935 -0.1257  1.0703
 2730SOL    HW1 8246   3.437   4.176   3.054 -2.1940 -0.8542  1.2600
 2730SOL    HW2 8247   3.401   4.290   2.961  0.1602 -0.1608  1.1540
 2731SOL     OW 8248   4.799   4.601   1.741 -0.4041 -0.1082  0.0351
 2731SOL    HW1 8249   4.788   4.523   1.686  0.5764 -0.1600 -0.0923
 2731SOL    HW2 8250   4.764   4.672   1.688 -1.8670 -0.5235  0.3872
 2732SOL     OW 8251   3.721   3.224   1.504 -0.5561 -0.0296  0.8377
 2732SOL    HW1 8252   3.643   3.170   1.516 -1.7690  1.6145  0.7529
 2732SOL    HW2 8253   3.764   3.188   1.428 -1.4700 -0.7258  0.6364
 2733SOL     OW 8254   4.827   4.841   0.254 -0.4492  0.0541 -0.0560
 2733SOL    HW1 8255   4.917   4.871   0.238 -0.8178  1.8748  0.9729
 2733SOL    HW2 8256   4.807   4.872   0.342 -1.8477 -0.9664  0.0134
 2734SOL     OW 8257   3.686   0.580   4.022 -1.0813  0.6127  0.1141
 2734SOL    HW1 8258   3.749   0.511   4.000 -2.2649 -1.7796  3.4647
 2734SOL    HW2 8259   3.740   0.652   4.054  0.0471 -0.0183 -0.3053
 2735SOL     OW 8260   4.779   3.875   4.341 -0.1389 -0.0740 -0.9171
 2735SOL    HW1 8261   4.801   3.798   4.393  1.2111  1.2356  0.5666
 2735SOL    HW2 8262   4.863   3.916   4.321 -0.8814  2.2163  0.2956
 2736SOL     OW 8263   0.755   0.115   1.308  0.5027 -0.5008  0.7510
 2736SOL    HW1 8264   0.830   0.148   1.356  1.3715  0.3514 -1.1005
 2736SOL    HW2 8265   0.693   0.188   1.306  0.5058 -0.5032  0.5068
 2737SOL     OW 8266   4.413   3.870   1.963  0.6468  0.9770 -0.1994
 2737SOL    HW1 8267   4.414   3.839   2.053 -0.9465 -1.5268 -0.9381
 2737SOL    HW2 8268   4.372   3.799   1.914  0.2531  2.8088 -2.7001
 2738SOL     OW 8269   4.047   4.061   4.625 -0.1943  0.4377 -0.6403
 2738SOL    HW1 8270   4.135   4.041   4.593  0.0400  0.5538 -0.0968
 2738SOL    HW2 8271   4.050   4.155   4.644  0.3064  0.0620  1.5119
 2739SOL     OW 8272   4.467   4.718   2.718  0.4779 -0.3751 -0.6604
 2739SOL    HW1 8273   4.403   4.758   2.658  0.6702 -1.5836 -1.7206
 2739SOL    HW2 8274   4.544   4.704   2.664  1.8509  1.4588  0.7173
 2740SOL     OW 8275   3.639   0.168   2.020 -0.1757 -0.2640  0.3091
 2740SOL    HW1 8276   3.551   0.138   2.038 -0.1359 -0.7143 -0.2149
 2740SOL    HW2 8277   3.634   0.263   2.029 -0.6001 -0.3255  0.7392
 2741SOL     OW 8278   0.348   3.164   4.073 -0.1642 -0.1476 -0.3759
 2741SOL    HW1 8279   0.367   3.203   4.159 -1.7302 -0.9864  0.3943
 2741SOL    HW2 8280   0.268   3.209   4.044  0.3381  0.1194 -1.4292
 2742SOL     OW 8281   3.534   4.670   2.899 -0.0593  0.1588  0.1258
 2742SOL    HW1 8282   3.469   4.707   2.839  1.9275  0.7466 -1.7923
 2742SOL    HW2 8283   3.564   4.590   2.855  1.1062  0.3408  0.5564
 2743SOL     OW 8284   2.305   0.705   3.102  0.2992  0.5401  0.0771
 2743SOL    HW1 8285   2.273   0.704   3.011  1.1564  1.8622 -0.2713
 2743SOL    HW2 8286   2.229   0.734   3.153  0.3906  1.8693 -0.5070
 2744SOL     OW 8287   4.893   3.279   0.590 -0.1893 -0.3873  0.0392
 2744SOL    HW1 8288   4.904   3.325   0.674 -1.6349  1.8261 -0.8759
 2744SOL    HW2 8289   4.830   3.210   0.609  0.9338 -1.1408  1.1609
 2745SOL     OW 8290   0.848   3.923   2.749 -0.3298 -0.3925  0.4211
 2745SOL    HW1 8291   0.926   3.976   2.763  0.2917 -1.1218 -0.2185
 2745SOL    HW2 8292   0.787   3.983   2.705  0.3872 -0.2102 -0.3587
 2746SOL     OW 8293   0.057   4.855   3.947 -0.3257 -0.7122 -0.3740
 2746SOL    HW1 8294   0.142   4.879   3.984 -0.6324  0.5518 -0.4425
 2746SOL    HW2 8295   0.071   4.858   3.852 -0.5279 -0.1996 -0.3868
 2747SOL     OW 8296   2.163   3.085   0.252 -0.6662 -0.0020  0.4250
 2747SOL    HW1 8297   2.111   3.006   0.267 -3.0661  1.5244  0.7798
 2747SOL    HW2 8298   2.243   3.054   0.210 -2.1043 -2.4725 -0.7075
 2748SOL     OW 8299   1.838   4.439   4.560 -0.3824 -0.0908 -0.8677
 2748SOL    HW1 8300   1.761   4.467   4.509 -0.9110 -1.5731 -0.9380
 2748SOL    HW2 8301   1.889   4.386   4.499 -0.5712 -1.1557 -0.1110
 2749SOL     OW 8302   0.700   3.007   3.559 -0.0204  0.2282 -0.0454
 2749SOL    HW1 8303   0.675   2.920   3.591 -0.9125  0.5089  0.0474
 2749SOL    HW2 8304   0.715   2.995   3.466 -0.8941  0.1196 -0.1806
 2750SOL     OW 8305   0.690   0.509   1.306 -0.0697 -0.3393 -0.0065
 2750SOL    HW1 8306   0.679   0.588   1.359 -0.1588  0.1291 -0.7112
 2750SOL    HW2 8307   0.782   0.510   1.281 -0.3541  0.2424 -1.0843
 2751SOL     OW 8308   3.722   0.591   2.112 -0.0975 -0.4450  0.4504
 2751SOL    HW1 8309   3.659   0.538   2.063 -0.9733 -0.9787  2.0752
 2751SOL    HW2 8310   3.752   0.533   2.182  0.6071  0.5025  0.9555
 2752SOL     OW 8311   1.987   3.150   4.150 -0.0885  0.1081 -0.1506
 2752SOL    HW1 8312   1.989   3.245   4.154 -0.4388  0.0793  1.1181
 2752SOL    HW2 8313   1.894   3.127   4.153  0.0161 -0.2892  1.2053
 2753SOL     OW 8314   4.414   2.480   0.608  0.0371 -0.5585 -0.4737
 2753SOL    HW1 8315   4.401   2.560   0.659 -0.0237 -0.1264 -1.1652
 2753SOL    HW2 8316   4.418   2.411   0.674  2.0505  0.2240  0.2911
 2754SOL     OW 8317   2.439   3.076   3.875  0.7331  0.0041  0.3309
 2754SOL    HW1 8318   2.527   3.113   3.862  1.3793  0.2277  4.1078
 2754SOL    HW2 8319   2.448   2.984   3.852  1.5668  0.2933 -0.6014
 2755SOL     OW 8320   1.501   4.740   4.192  0.2001  0.3869 -0.0474
 2755SOL    HW1 8321   1.503   4.826   4.235  0.3129  0.8753 -0.9919
 2755SOL    HW2 8322   1.590   4.730   4.157  0.2699 -0.2528  0.3041
 2756SOL     OW 8323   1.335   3.627   2.119 -0.3151  1.0097  0.4370
 2756SOL    HW1 8324   1.322   3.688   2.046 -0.5214  0.3028 -0.1326
 2756SOL    HW2 8325   1.376   3.550   2.079  0.8054  1.1299  1.3056
 2757SOL     OW 8326   2.216   3.867   2.848 -0.1975  0.3557 -0.4438
 2757SOL    HW1 8327   2.167   3.938   2.889 -0.0611 -0.0851  0.5180
 2757SOL    HW2 8328   2.198   3.876   2.755  0.7920  2.3780 -0.4958
 2758SOL     OW 8329   2.914   3.179   2.147  0.1250  0.8173  0.3968
 2758SOL    HW1 8330   2.875   3.242   2.207 -0.3341  2.0525 -1.1425
 2758SOL    HW2 8331   2.959   3.116   2.205 -1.9925  0.7575  2.1100
 2759SOL     OW 8332   2.112   2.430   3.592  0.7284 -0.2378  0.2246
 2759SOL    HW1 8333   2.163   2.375   3.653 -1.0902  0.5106  2.5611
 2759SOL    HW2 8334   2.031   2.381   3.579  0.5102  0.3058 -0.4816
 2760SOL     OW 8335   4.979   3.997   1.585 -0.0426  0.1836  0.0332
 2760SOL    HW1 8336   5.027   3.917   1.563 -0.2867  0.2989 -0.9678
 2760SOL    HW2 8337   4.887   3.970   1.586 -0.2050  0.6266 -1.2266
 2761SOL     OW 8338   4.515   2.464   1.911 -0.2566 -0.0530 -0.2587
 2761SOL    HW1 8339   4.587   2.483   1.851  0.8806 -0.1189  1.0394
 2761SOL    HW2 8340   4.543   2.386   1.959 -0.1198  1.2648  1.8968
 2762SOL     OW 8341   1.685   0.727   3.862  0.2025 -0.7763 -0.2120
 2762SOL    HW1 8342   1.678   0.704   3.954  0.2190  0.5327  0.1376
 2762SOL    HW2 8343   1.770   0.771   3.855 -0.0941 -0.2629 -0.7038
 2763SOL     OW 8344   3.235   3.346   0.183 -0.3815  0.4521 -0.5735
 2763SOL    HW1 8345   3.226   3.295   0.103  0.5484  0.7741 -0.8991
 2763SOL    HW2 8346   3.261   3.282   0.249  0.5017  0.4398 -0.9149
 2764SOL     OW 8347   2.899   1.955   3.495 -0.3415  0.0722 -0.4909
 2764SOL    HW1 8348   2.881   1.973   3.403  0.9604  1.4992 -0.5043
 2764SOL    HW2 8349   2.995   1.957   3.502 -0.4476  1.8452  1.2058
 2765SOL     OW 8350   1.731   3.164   0.107 -0.1237 -0.3415 -0.1816
 2765SOL    HW1 8351   1.722   3.183   0.200 -0.8102 -1.0734 -0.0913
 2765SOL    HW2 8352   1.799   3.097   0.103  1.5889  1.3073 -0.4226
 2766SOL     OW 8353   0.353   3.570   3.442 -0.0311 -0.5615  0.2063
 2766SOL    HW1 8354   0.361   3.524   3.526 -0.6123 -0.2201  0.4577
 2766SOL    HW2 8355   0.258   3.577   3.428  0.0573 -0.0944 -0.1894
 2767SOL     OW 8356   0.839   4.123   2.298  1.2176 -0.1184 -0.1130
 2767SOL    HW1 8357   0.855   4.134   2.205  3.6464 -0.3163  0.2284
 2767SOL    HW2 8358   0.835   4.028   2.311 -0.8625 -0.0879 -0.2295
 2768SOL     OW 8359   2.228   0.493  -0.028  0.2344  0.4161  0.6014
 2768SOL    HW1 8360   2.245   0.466   0.062  3.7666  0.7637  0.1694
 2768SOL    HW2 8361   2.203   0.586  -0.021 -0.1386  0.2713  1.2361
 2769SOL     OW 8362   0.451   0.220   0.737  0.1753 -0.1931  0.1545
 2769SOL    HW1 8363   0.401   0.190   0.661  0.7329  0.8101 -0.6287
 2769SOL    HW2 8364   0.519   0.154   0.749 -1.3373 -1.6336  1.2997
 2770SOL     OW 8365   2.650   4.844   3.288  0.0642  0.1237  0.0510
 2770SOL    HW1 8366   2.603   4.873   3.366  0.8360 -0.5150  0.7751
 2770SOL    HW2 8367   2.644   4.748   3.291  1.4279  0.0278  0.1830
 2771SOL     OW 8368   0.840   0.204   2.825 -0.1331  0.0580 -0.0292
 2771SOL    HW1 8369   0.785   0.134   2.860  0.0955 -0.1991 -0.1792
 2771SOL    HW2 8370   0.784   0.282   2.827 -0.7644 -0.3529 -0.8921
 2772SOL     OW 8371   3.597   3.617   2.570 -0.0915  0.1030  0.3785
 2772SOL    HW1 8372   3.649   3.679   2.518 -0.5194 -2.4550 -3.5540
 2772SOL    HW2 8373   3.662   3.567   2.619  0.9599 -0.6802 -1.6888
 2773SOL     OW 8374   3.746   1.620   1.925 -0.1013  0.7153 -0.0478
 2773SOL    HW1 8375   3.800   1.607   2.003 -0.9821  0.6757  0.5676
 2773SOL    HW2 8376   3.753   1.539   1.876 -3.4431 -1.3319  2.4376
 2774SOL     OW 8377   1.572   1.050   4.276  0.0324  0.0263  0.2863
 2774SOL    HW1 8378   1.596   1.128   4.227  1.2381 -1.0244 -0.8520
 2774SOL    HW2 8379   1.534   1.084   4.358  0.1678  1.7783 -0.3407
 2775SOL     OW 8380   0.111   3.769   0.686 -0.0584  0.5327  0.4974
 2775SOL    HW1 8381   0.093   3.759   0.780  1.1074  0.2460  0.7029
 2775SOL    HW2 8382   0.099   3.863   0.669  1.2046  0.8529  1.2738
 2776SOL     OW 8383   1.738   2.559   1.027  0.2486 -0.1392 -0.5273
 2776SOL    HW1 8384   1.774   2.646   1.045  2.5481 -0.6195 -2.3613
 2776SOL    HW2 8385   1.702   2.565   0.939 -0.2736 -0.8463 -0.3718
 2777SOL     OW 8386   2.808   0.139   1.187 -0.1030  0.3275  0.2434
 2777SOL    HW1 8387   2.813   0.058   1.238  2.9871 -0.1527 -0.6009
 2777SOL    HW2 8388   2.833   0.112   1.098 -1.3391  1.8619 -0.6263
 2778SOL     OW 8389   1.575   3.400   1.522 -0.4722 -0.0483  0.1739
 2778SOL    HW1 8390   1.666   3.406   1.552  0.0280 -1.6592 -0.8926
 2778SOL    HW2 8391   1.581   3.360   1.435 -2.2255 -0.5798  0.2571
 2779SOL     OW 8392   1.669   4.400   3.171 -0.1479  0.2601 -0.2974
 2779SOL    HW1 8393   1.674   4.472   3.109 -1.5154  0.7070  0.0822
 2779SOL    HW2 8394   1.636   4.326   3.120 -1.5542  0.7046 -0.0819
 2780SOL     OW 8395   0.304   3.227   3.480 -0.2244  0.5381  0.2614
 2780SOL    HW1 8396   0.278   3.164   3.547  0.9067  0.1594  0.3582
 2780SOL    HW2 8397   0.393   3.252   3.504 -0.9514  2.9141  0.7866
 2781SOL     OW 8398   0.168   1.606   1.039  0.9796  0.2369 -0.1636
 2781SOL    HW1 8399   0.172   1.642   0.950 -2.3030  1.6741  0.1440
 2781SOL    HW2 8400   0.197   1.678   1.095 -0.7792  0.7729  0.1211
 2782SOL     OW 8401   4.598   2.179   3.676 -0.5573 -0.4710  0.1098
 2782SOL    HW1 8402   4.530   2.245   3.667 -1.8336 -1.2659  2.7561
 2782SOL    HW2 8403   4.607   2.167   3.771  2.4788 -1.2504 -0.1560
 2783SOL     OW 8404   0.934   3.048   0.127 -0.1688 -0.1352 -0.0617
 2783SOL    HW1 8405   0.979   2.982   0.180  0.1424  0.0436 -0.1030
 2783SOL    HW2 8406   0.889   3.103   0.191  0.9589  0.6443  0.0889
 2784SOL     OW 8407   1.797   2.547   2.557  0.2492 -0.2128  0.2009
 2784SOL    HW1 8408   1.711   2.510   2.579 -1.3659  1.6376 -2.4126
 2784SOL    HW2 8409   1.833   2.574   2.641 -1.7702 -0.9469  1.3846
 2785SOL     OW 8410   1.264   0.311   0.876  0.7111  0.0101 -0.0950
 2785SOL    HW1 8411   1.301   0.263   0.802  1.3581  0.7964 -0.3004
 2785SOL    HW2 8412   1.234   0.243   0.937  0.9980 -0.6404 -0.6702
 2786SOL     OW 8413   0.764   1.355   2.050 -0.2717 -0.0882  0.8299
 2786SOL    HW1 8414   0.778   1.260   2.054 -1.8768 -0.4148 -0.5545
 2786SOL    HW2 8415   0.848   1.390   2.019 -0.7200 -1.4692 -2.2990
 2787SOL     OW 8416   2.625   3.426   1.698 -0.0182  0.1343  0.1071
 2787SOL    HW1 8417   2.623   3.330   1.700 -1.7312  0.1133 -1.1314
 2787SOL    HW2 8418   2.617   3.451   1.790 -2.9057 -0.9505  0.2657
 2788SOL     OW 8419   0.740   3.129   1.404  0.0344 -0.1794 -0.2253
 2788SOL    HW1 8420   0.780   3.181   1.474  0.5584 -1.3014  0.3435
 2788SOL    HW2 8421   0.758   3.038   1.429 -0.5363 -0.6265 -1.3747
 2789SOL     OW 8422   4.061   3.630   1.215 -0.0941  0.0516 -0.1390
 2789SOL    HW1 8423   3.976   3.663   1.183  0.4555  1.6619 -0.0557
 2789SOL    HW2 8424   4.115   3.709   1.222  1.3441 -0.9297  0.0287
 2790SOL     OW 8425   2.470   0.486   1.325 -0.3086 -0.2655 -0.0771
 2790SOL    HW1 8426   2.500   0.435   1.250  0.6555 -0.3368  0.3433
 2790SOL    HW2 8427   2.545   0.488   1.384 -1.1081 -0.3781  0.9735
 2791SOL     OW 8428   1.172   4.740   2.267  0.0020  0.2705 -0.5524
 2791SOL    HW1 8429   1.144   4.814   2.320  1.6578  2.3006 -2.3227
 2791SOL    HW2 8430   1.195   4.672   2.330  1.1493  2.2922  1.3440
 2792SOL     OW 8431   3.547   2.404   2.992  0.7868  0.2342  0.7307
 2792SOL    HW1 8432   3.562   2.479   3.051 -0.5574  0.9682  0.1889
 2792SOL    HW2 8433   3.485   2.349   3.039 -1.5639  1.6245 -0.5759
 2793SOL     OW 8434   0.782   3.408   3.344  0.2202 -0.9070 -0.0047
 2793SOL    HW1 8435   0.844   3.366   3.404 -0.1311 -1.6115 -0.1272
 2793SOL    HW2 8436   0.739   3.475   3.397  1.0616 -0.4185  0.0885
 2794SOL     OW 8437   1.757   1.292   3.758  0.0130  0.6726 -0.0016
 2794SOL    HW1 8438   1.847   1.311   3.787  0.1912 -1.9107  1.4065
 2794SOL    HW2 8439   1.760   1.304   3.663  2.0204  0.0949 -0.0563
 2795SOL     OW 8440   4.679   0.356   4.989  0.7373  0.1547  0.7639
 2795SOL    HW1 8441   4.720   0.270   4.989  1.5657  0.5246  1.7805
 2795SOL    HW2 8442   4.730   0.408   4.927  0.5935  0.0731  0.5773
 2796SOL     OW 8443   3.155   2.402   4.763 -0.0185  0.4898  0.0966
 2796SOL    HW1 8444   3.227   2.349   4.730  0.1891  0.5103  0.5058
 2796SOL    HW2 8445   3.117   2.348   4.833  0.6556  1.1756  1.0204
 2797SOL     OW 8446   2.970   2.497   1.911  0.3854 -0.3977  0.2440
 2797SOL    HW1 8447   2.922   2.575   1.938  0.4513  0.3617 -1.6510
 2797SOL    HW2 8448   2.963   2.437   1.986 -1.2713  0.6793  1.0217
 2798SOL     OW 8449   4.193   1.332   1.081  0.5789  0.1760  0.1219
 2798SOL    HW1 8450   4.159   1.291   1.001  1.2011 -1.4281  0.6432
 2798SOL    HW2 8451   4.278   1.290   1.095  0.9503  1.2045  1.0564
 2799SOL     OW 8452   1.365   2.855   3.241 -0.4791  0.1635  0.3093
 2799SOL    HW1 8453   1.286   2.840   3.292 -0.4125 -0.8300  0.1319
 2799SOL    HW2 8454   1.335   2.860   3.150 -0.4481  0.7415  0.3242
 2800SOL     OW 8455   1.159   1.843   1.174 -0.3229  0.4450 -0.2095
 2800SOL    HW1 8456   1.118   1.768   1.218  0.4461  0.0839 -0.1038
 2800SOL    HW2 8457   1.149   1.916   1.236 -0.6126  0.3108 -0.0965
 2801SOL     OW 8458   4.076   4.883   1.134  0.1073 -0.2071  0.2697
 2801SOL    HW1 8459   4.036   4.912   1.053  1.5046 -1.5071 -0.9656
 2801SOL    HW2 8460   4.009   4.895   1.201 -1.2516  0.4302 -1.1667
 2802SOL     OW 8461   2.218   4.131   0.724  0.0526 -0.3054  0.2566
 2802SOL    HW1 8462   2.228   4.169   0.811  1.9766  1.7190 -0.7530
 2802SOL    HW2 8463   2.146   4.068   0.733  1.0857 -1.1832  3.5954
 2803SOL     OW 8464   2.284   3.795   3.422 -0.0066 -0.0610  0.3049
 2803SOL    HW1 8465   2.255   3.703   3.425 -1.1344  0.1904 -1.3669
 2803SOL    HW2 8466   2.375   3.790   3.391 -0.2680 -0.6012 -0.4096
 2804SOL     OW 8467   0.807   3.297   4.910 -0.5845  0.3014 -0.0614
 2804SOL    HW1 8468   0.740   3.297   4.979 -2.2880  0.9735 -1.6407
 2804SOL    HW2 8469   0.844   3.208   4.912 -0.8240  0.2091  1.4657
 2805SOL     OW 8470   4.063   1.329   1.835 -0.2691  0.4655 -0.5485
 2805SOL    HW1 8471   4.096   1.240   1.826  0.8846  1.0152 -2.3140
 2805SOL    HW2 8472   4.057   1.343   1.930  0.2835 -1.1971 -0.2389
 2806SOL     OW 8473   1.428   1.167   4.810  0.1587 -0.1917  0.5645
 2806SOL    HW1 8474   1.364   1.226   4.773  0.8534 -0.0434 -0.4204
 2806SOL    HW2 8475   1.377   1.090   4.838 -0.5675  0.3461  0.7370
 2807SOL     OW 8476   2.425   3.664   1.688 -0.8718 -0.1980 -0.3356
 2807SOL    HW1 8477   2.459   3.574   1.693  2.0158  0.8098  0.0725
 2807SOL    HW2 8478   2.426   3.684   1.594 -1.7391 -0.6397 -0.4480
 2808SOL     OW 8479   2.204   2.133   1.932 -0.2330  0.5886  0.1419
 2808SOL    HW1 8480   2.281   2.138   1.989  0.5197 -2.2741 -0.4789
 2808SOL    HW2 8481   2.236   2.160   1.846  0.1293 -0.5992 -0.1157
 2809SOL     OW 8482   2.549   2.328   1.806 -0.0913  0.5213 -0.3997
 2809SOL    HW1 8483   2.598   2.288   1.733  2.0833  0.3020  1.0989
 2809SOL    HW2 8484   2.510   2.407   1.768  0.4052  0.0625 -1.9590
 2810SOL     OW 8485   0.426   2.446   1.914 -0.1136  0.3845 -0.3951
 2810SOL    HW1 8486   0.427   2.390   1.836 -1.2031  0.2031 -0.2924
 2810SOL    HW2 8487   0.464   2.529   1.885  1.7025 -0.4328 -0.5097
 2811SOL     OW 8488   0.175   1.372   3.276 -0.2127 -0.2278  0.0831
 2811SOL    HW1 8489   0.237   1.445   3.276  0.4351 -0.7515  1.0402
 2811SOL    HW2 8490   0.101   1.402   3.223  0.6977  0.5499 -0.7587
 2812SOL     OW 8491   0.372   4.769   2.537 -0.1676 -0.0101 -0.1789
 2812SOL    HW1 8492   0.410   4.841   2.488 -0.9554  1.1975  0.9144
 2812SOL    HW2 8493   0.371   4.799   2.628  0.7840 -1.9668  0.5515
 2813SOL     OW 8494   0.298   3.019   2.288 -0.0752  0.7642 -0.1815
 2813SOL    HW1 8495   0.371   3.061   2.334 -0.2805 -0.6855  1.6252
 2813SOL    HW2 8496   0.244   2.982   2.358 -1.3716 -0.0894 -1.5606
 2814SOL     OW 8497   0.867   3.048   0.848  0.0625 -0.1969 -0.0955
 2814SOL    HW1 8498   0.780   3.087   0.854 -0.2453 -0.4042 -2.3512
 2814SOL    HW2 8499   0.914   3.101   0.784  0.7459 -1.5082 -0.7401
 2815SOL     OW 8500   4.871   2.081   1.232  0.0797  0.0851 -0.2597
 2815SOL    HW1 8501   4.810   2.149   1.204  1.3951  1.0151 -1.0048
 2815SOL    HW2 8502   4.892   2.104   1.323  0.4728  0.6627 -0.4887
 2816SOL     OW 8503   2.069   4.901   3.462 -0.7279  0.1942  0.0054
 2816SOL    HW1 8504   2.028   4.987   3.474 -1.9217  0.1185 -2.7568
 2816SOL    HW2 8505   2.150   4.920   3.415 -1.5888 -0.1903 -1.7303
 2817SOL     OW 8506   3.513   4.953   0.952 -0.1266 -0.1324  0.0608
 2817SOL    HW1 8507   3.489   4.881   0.894 -0.8120 -1.1053  1.4891
 2817SOL    HW2 8508   3.539   4.910   1.034 -0.4240  1.2350  0.9139
 2818SOL     OW 8509   1.447   2.904   0.427  0.0629  0.4117  0.3197
 2818SOL    HW1 8510   1.470   2.919   0.335  0.5210 -0.6613  0.2373
 2818SOL    HW2 8511   1.447   2.990   0.467  2.1449  0.6788 -0.1665
 2819SOL     OW 8512   4.254   3.811   0.144  0.6698  0.1681  0.3065
 2819SOL    HW1 8513   4.198   3.799   0.220  0.3852  0.7199  0.1886
 2819SOL    HW2 8514   4.316   3.879   0.169  0.7928  0.1090  0.1670
 2820SOL     OW 8515   3.030   2.816   2.652  0.3256 -0.1641 -0.4588
 2820SOL    HW1 8516   3.118   2.846   2.627  0.4678 -1.0588 -1.0541
 2820SOL    HW2 8517   3.037   2.797   2.745  0.4123  0.9955 -0.2158
 2821SOL     OW 8518   1.183   2.670   4.316 -0.0075 -0.3050  0.6177
 2821SOL    HW1 8519   1.123   2.694   4.386  2.6317  0.1042  2.9177
 2821SOL    HW2 8520   1.158   2.581   4.291 -1.4580 -0.1827  1.5505
 2822SOL     OW 8521   0.926   4.904   1.562 -0.3323 -0.5019 -0.5025
 2822SOL    HW1 8522   0.927   4.864   1.649 -0.0229 -1.7662 -1.0634
 2822SOL    HW2 8523   0.859   4.856   1.514 -0.3813  0.0686 -1.0156
 2823SOL     OW 8524   2.806   4.059   0.588  0.1349  0.4474  0.1361
 2823SOL    HW1 8525   2.765   3.993   0.531  1.7638 -1.5697  1.1773
 2823SOL    HW2 8526   2.734   4.092   0.642 -1.1581  1.3358 -1.9964
 2824SOL     OW 8527   0.940   1.724   3.416 -0.7662  0.3903  0.5466
 2824SOL    HW1 8528   0.857   1.713   3.369  0.2412 -1.2593 -0.9606
 2824SOL    HW2 8529   0.918   1.704   3.507 -2.0888  0.3660  0.2505
 2825SOL     OW 8530   1.027   3.467   1.152  0.1941  0.1892  0.0943
 2825SOL    HW1 8531   0.942   3.489   1.191 -0.2382 -0.7501 -0.2931
 2825SOL    HW2 8532   1.018   3.376   1.124  0.0859  1.1039 -3.2634
 2826SOL     OW 8533   2.814   2.150   0.247 -0.5473  0.0655 -0.4419
 2826SOL    HW1 8534   2.895   2.107   0.275 -1.6436 -1.1237  1.0795
 2826SOL    HW2 8535   2.787   2.102   0.169  0.9468  1.4652 -1.9313
 2827SOL     OW 8536   4.253   0.926   2.592 -0.2695 -0.0422  0.0646
 2827SOL    HW1 8537   4.199   0.904   2.668 -1.7787  1.4483 -0.5212
 2827SOL    HW2 8538   4.341   0.935   2.628 -0.6120 -1.2561  1.2839
 2828SOL     OW 8539   3.215   3.829   1.613  0.4355 -0.5467 -0.2530
 2828SOL    HW1 8540   3.181   3.907   1.569 -0.9978 -0.3717  1.0916
 2828SOL    HW2 8541   3.214   3.761   1.545  0.9175  0.3783 -1.2128
 2829SOL     OW 8542   3.812   2.094   0.222  0.1935 -0.7522 -0.4697
 2829SOL    HW1 8543   3.886   2.132   0.173  0.4263 -0.6948 -0.0757
 2829SOL    HW2 8544   3.752   2.063   0.154  0.7609 -1.1430 -0.8026
 2830SOL     OW 8545   0.436   0.541   4.667 -0.0703  0.2672 -0.4469
 2830SOL    HW1 8546   0.385   0.504   4.595 -0.3612  0.5846 -0.4052
 2830SOL    HW2 8547   0.449   0.468   4.728 -0.3707  0.1590 -0.5134
 2831SOL     OW 8548   2.208   3.963   4.489 -0.2092 -0.4303  0.1384
 2831SOL    HW1 8549   2.252   3.942   4.406  0.2991  0.1315  0.2578
 2831SOL    HW2 8550   2.146   4.033   4.466  1.4108  1.2290  0.5944
 2832SOL     OW 8551   3.769   0.166   1.598  0.1420 -0.2292 -0.0613
 2832SOL    HW1 8552   3.724   0.143   1.517 -0.4682  2.0897 -0.4654
 2832SOL    HW2 8553   3.743   0.257   1.614  2.2145  0.1655  1.4065
 2833SOL     OW 8554   1.768   2.059   2.818  0.1292  0.0046 -0.0776
 2833SOL    HW1 8555   1.706   1.987   2.809 -0.6934  0.6110  0.5903
 2833SOL    HW2 8556   1.847   2.018   2.855 -0.5279 -0.4665  0.8449
 2834SOL     OW 8557   1.937   4.328   0.545  0.2737  0.1424 -0.0434
 2834SOL    HW1 8558   1.861   4.310   0.599 -0.6284  1.8743 -0.6625
 2834SOL    HW2 8559   1.991   4.387   0.598  0.6556 -0.2188 -0.0255
 2835SOL     OW 8560   1.163   1.403   2.529 -0.1408  0.0363  0.0377
 2835SOL    HW1 8561   1.152   1.466   2.458  0.5663  1.6805  1.3261
 2835SOL    HW2 8562   1.204   1.327   2.488  2.9739  2.0223 -0.8587
 2836SOL     OW 8563   0.624   0.692   4.570 -0.0296  0.3569 -0.4140
 2836SOL    HW1 8564   0.538   0.652   4.584 -0.0032 -0.8013 -3.0061
 2836SOL    HW2 8565   0.672   0.629   4.517  1.5175  2.0542 -1.1632
 2837SOL     OW 8566   3.283   1.040   3.141  0.0615 -0.5228 -0.2402
 2837SOL    HW1 8567   3.351   1.086   3.092 -0.5633 -0.8533 -1.4619
 2837SOL    HW2 8568   3.325   0.960   3.172  0.0842 -1.0741 -1.5928
 2838SOL     OW 8569   1.719   4.292   0.217 -0.4598 -0.0261  0.2148
 2838SOL    HW1 8570   1.770   4.287   0.297  1.5176  1.1726 -0.8749
 2838SOL    HW2 8571   1.629   4.305   0.246  0.2462  0.7592  2.2177
 2839SOL     OW 8572   1.274   2.430   2.214  0.4671  0.0518  0.3248
 2839SOL    HW1 8573   1.291   2.341   2.244 -1.6365 -0.1211  1.1209
 2839SOL    HW2 8574   1.256   2.421   2.120 -3.6914 -1.0587  1.0541
 2840SOL     OW 8575   0.457   3.723   2.180 -0.1145 -0.9692 -0.0033
 2840SOL    HW1 8576   0.523   3.656   2.163  0.5529 -0.3881  0.2505
 2840SOL    HW2 8577   0.414   3.695   2.261  0.7016 -0.6927  0.5419
 2841SOL     OW 8578   0.759   0.942   0.241 -0.1350 -0.1302 -0.3233
 2841SOL    HW1 8579   0.833   0.979   0.288  0.6980 -0.9809 -0.9260
 2841SOL    HW2 8580   0.682   0.974   0.288  0.6491 -0.7041  1.4180
 2842SOL     OW 8581   4.658   2.153   1.025  0.7480 -0.8564  0.3623
 2842SOL    HW1 8582   4.661   2.211   0.949  0.0579  1.0704  1.7327
 2842SOL    HW2 8583   4.700   2.072   0.995 -0.6756 -0.6660 -2.4377
 2843SOL     OW 8584   0.413   1.724   4.232 -0.3334  0.0646 -0.2495
 2843SOL    HW1 8585   0.491   1.734   4.286 -0.3862  0.3398 -0.2185
 2843SOL    HW2 8586   0.381   1.814   4.220 -0.1614  0.0313 -0.9796
 2844SOL     OW 8587   4.047   0.040   2.960 -0.3790 -0.3549  0.6751
 2844SOL    HW1 8588   4.072   0.129   2.934 -1.8227  0.6880  2.5327
 2844SOL    HW2 8589   4.116   0.013   3.021 -0.6576  0.0961  1.2036
 2845SOL     OW 8590   0.353   4.786   0.047 -0.3978  0.6398 -0.2857
 2845SOL    HW1 8591   0.287   4.716   0.038  0.2544 -0.1117  0.6238
 2845SOL    HW2 8592   0.368   4.815  -0.043 -0.4224 -0.6462 -0.7274
 2846SOL     OW 8593   0.334   4.445   0.111 -0.5280  0.3052  0.1983
 2846SOL    HW1 8594   0.390   4.440   0.034 -0.9898 -0.5823 -0.0921
 2846SOL    HW2 8595   0.265   4.507   0.087 -0.0102  0.9374  0.3364
 2847SOL     OW 8596   3.056   0.968   0.192  0.2470  0.5029 -0.1362
 2847SOL    HW1 8597   3.114   1.043   0.199  1.1596 -0.2138  0.0925
 2847SOL    HW2 8598   3.062   0.924   0.278  0.7090 -0.5249 -0.6723
 2848SOL     OW 8599   2.837   0.631   4.961 -0.1105 -0.8985  0.3008
 2848SOL    HW1 8600   2.746   0.653   4.978 -0.9922 -3.4620 -0.5891
 2848SOL    HW2 8601   2.873   0.708   4.917 -2.4075 -0.4945 -1.0325
 2849SOL     OW 8602   4.392   2.729   3.425 -0.0140 -0.3843 -0.2648
 2849SOL    HW1 8603   4.333   2.783   3.371 -2.6093 -2.2178  0.5538
 2849SOL    HW2 8604   4.476   2.732   3.379 -0.0948  3.8663 -0.5206
 2850SOL     OW 8605   0.491   4.095   3.101 -0.1141  0.2592  0.6372
 2850SOL    HW1 8606   0.454   4.156   3.037  0.7476  0.4563  0.3080
 2850SOL    HW2 8607   0.584   4.091   3.078 -0.4756 -3.0027 -0.9104
 2851SOL     OW 8608   1.167   1.610   2.137 -0.0701 -0.6885  0.0578
 2851SOL    HW1 8609   1.257   1.603   2.106  0.7216 -2.0373  2.4283
 2851SOL    HW2 8610   1.125   1.531   2.104  0.1575 -1.0144  0.5391
 2852SOL     OW 8611   1.611   4.483   2.124  0.6302 -0.1121 -0.2949
 2852SOL    HW1 8612   1.673   4.515   2.190 -1.4039 -0.6748  2.0641
 2852SOL    HW2 8613   1.665   4.438   2.060  2.8550  1.4985  0.3144
 2853SOL     OW 8614   1.525   0.947   2.635 -0.1139 -0.1526 -0.0902
 2853SOL    HW1 8615   1.450   0.926   2.579  0.4197  2.4776 -1.9458
 2853SOL    HW2 8616   1.513   1.039   2.658  1.5253 -0.2335  1.2827
 2854SOL     OW 8617   0.590   3.336   1.279  0.4964  0.2959 -0.1835
 2854SOL    HW1 8618   0.643   3.264   1.313  0.8422  1.0092  0.8071
 2854SOL    HW2 8619   0.552   3.377   1.356 -0.0446  0.9209 -0.7686
 2855SOL     OW 8620   2.201   4.265   1.217 -0.1743  0.3644 -0.4765
 2855SOL    HW1 8621   2.159   4.343   1.180  0.9665  1.1444 -0.2069
 2855SOL    HW2 8622   2.279   4.299   1.260  0.1424 -0.9006 -0.0181
 2856SOL     OW 8623   2.643   3.543   1.949 -0.9219  0.5304  0.4417
 2856SOL    HW1 8624   2.642   3.635   1.921  0.5182  0.8342  1.2936
 2856SOL    HW2 8625   2.557   3.529   1.989 -1.2545  1.4214  0.0585
 2857SOL     OW 8626   1.245   1.707   2.882 -0.2692  0.6155 -0.2751
 2857SOL    HW1 8627   1.285   1.635   2.833 -0.2971  1.3162 -1.3801
 2857SOL    HW2 8628   1.183   1.746   2.820 -2.4893 -0.2434  1.2665
 2858SOL     OW 8629   3.950   3.798   4.568  0.1034  0.5745  0.1536
 2858SOL    HW1 8630   3.975   3.888   4.589 -0.3822  0.3898  1.6011
 2858SOL    HW2 8631   4.019   3.744   4.605 -0.6307  0.2582  1.1025
 2859SOL     OW 8632   2.030   1.335   2.707 -0.1311  0.1737 -0.0577
 2859SOL    HW1 8633   2.124   1.318   2.716  0.1349 -0.0949 -2.5415
 2859SOL    HW2 8634   2.009   1.394   2.780  2.3479  1.6959 -0.4493
 2860SOL     OW 8635   2.591   2.895   4.321  0.1614 -0.2845 -0.2296
 2860SOL    HW1 8636   2.513   2.948   4.303 -2.0774 -3.4593 -0.8019
 2860SOL    HW2 8637   2.565   2.839   4.394  1.9661 -1.3507 -0.3378
 2861SOL     OW 8638   0.634   2.524   4.215  0.3729 -0.5854 -0.2401
 2861SOL    HW1 8639   0.576   2.502   4.142  0.2869 -2.9642  0.4362
 2861SOL    HW2 8640   0.618   2.616   4.233 -2.2488 -0.8362 -0.9194
 2862SOL     OW 8641   2.351   1.063   0.750 -0.3926 -0.2044 -0.2792
 2862SOL    HW1 8642   2.259   1.063   0.776 -0.1539  1.4974  0.7749
 2862SOL    HW2 8643   2.364   1.149   0.709  1.0257  0.2272  0.9616
 2863SOL     OW 8644   4.961   2.344   1.613 -0.4722  0.5863 -0.9437
 2863SOL    HW1 8645   5.056   2.360   1.617 -0.1019 -1.4351  2.5955
 2863SOL    HW2 8646   4.923   2.419   1.660 -0.3954  0.2612 -0.3544
 2864SOL     OW 8647   4.802   1.511   3.577 -0.2989 -0.9540 -0.2548
 2864SOL    HW1 8648   4.878   1.543   3.529 -0.2119  0.4369  0.7674
 2864SOL    HW2 8649   4.734   1.575   3.561 -0.3284 -0.5621  1.2824
 2865SOL     OW 8650   4.918   1.069   4.224 -0.6356  0.8470  0.4371
 2865SOL    HW1 8651   4.948   0.980   4.206 -1.7057  0.4878  0.3512
 2865SOL    HW2 8652   4.935   1.082   4.318 -0.8682  0.3982  0.5417
 2866SOL     OW 8653   3.704   1.695   4.103  0.1517 -0.0145  0.0013
 2866SOL    HW1 8654   3.678   1.614   4.146 -1.3768  0.1932 -0.4617
 2866SOL    HW2 8655   3.734   1.668   4.016  0.7990 -0.1930  0.2793
 2867SOL     OW 8656   0.372   0.971   1.805  0.6467 -0.2386  0.4491
 2867SOL    HW1 8657   0.353   0.916   1.881  0.9733  0.3353  0.9407
 2867SOL    HW2 8658   0.365   1.061   1.837 -0.9381  0.0512 -0.5969
 2868SOL     OW 8659   3.267   2.137   1.185 -0.1312 -0.0912 -0.4530
 2868SOL    HW1 8660   3.291   2.182   1.104  0.3911  1.5692  0.5876
 2868SOL    HW2 8661   3.277   2.202   1.253  0.1155 -1.6451  1.0733
 2869SOL     OW 8662   4.759   2.401   3.773 -0.0153 -0.0266 -0.2420
 2869SOL    HW1 8663   4.688   2.375   3.833  0.6856 -2.4758 -0.3752
 2869SOL    HW2 8664   4.825   2.440   3.830  0.0805 -1.1386  0.4422
 2870SOL     OW 8665   2.118   1.999   3.616  0.0747 -0.5211  0.0497
 2870SOL    HW1 8666   2.189   1.943   3.645 -0.6445 -1.9037 -0.7606
 2870SOL    HW2 8667   2.144   2.027   3.528  0.0999 -0.1515  0.1714
 2871SOL     OW 8668   4.675   3.590   0.187  0.1870 -0.1862 -0.2146
 2871SOL    HW1 8669   4.620   3.638   0.248  0.2793  0.3994 -0.5840
 2871SOL    HW2 8670   4.743   3.551   0.241 -0.8042 -1.2578  0.3059
 2872SOL     OW 8671   1.030   4.913   3.363 -0.1284  0.5285  0.3808
 2872SOL    HW1 8672   0.936   4.901   3.375  0.0439 -1.0262  0.3339
 2872SOL    HW2 8673   1.070   4.858   3.431  0.7544 -0.5510 -0.9637
 2873SOL     OW 8674   0.866   3.493   3.053 -0.0631 -0.4011  0.0368
 2873SOL    HW1 8675   0.847   3.586   3.047  0.4003 -0.2482  0.8179
 2873SOL    HW2 8676   0.879   3.477   3.146  2.5782 -0.6823 -0.3155
 2874SOL     OW 8677   3.334   4.898   3.362 -0.1630 -0.0269  0.0274
 2874SOL    HW1 8678   3.348   4.930   3.451  0.0447  0.9961 -0.3530
 2874SOL    HW2 8679   3.410   4.929   3.313 -0.5396 -0.1000 -0.6219
 2875SOL     OW 8680   1.583   2.565   2.792 -0.1571  0.1733 -0.5476
 2875SOL    HW1 8681   1.641   2.498   2.826  0.1955  0.3521 -0.7906
 2875SOL    HW2 8682   1.510   2.517   2.753 -0.5289 -0.0348  0.3853
 2876SOL     OW 8683   4.350   3.551   2.668  0.0366 -0.4394 -0.1188
 2876SOL    HW1 8684   4.325   3.616   2.602 -0.4411  0.7000  1.1146
 2876SOL    HW2 8685   4.436   3.580   2.699  0.2571 -0.9632 -0.2400
 2877SOL     OW 8686   4.100   4.733   4.149 -0.2174  0.1651  0.3636
 2877SOL    HW1 8687   4.148   4.763   4.226 -0.1885  0.8200  0.0990
 2877SOL    HW2 8688   4.164   4.737   4.077 -0.6444  0.9856  0.0212
 2878SOL     OW 8689   2.775   2.978   4.121  0.1898 -0.3454 -0.4384
 2878SOL    HW1 8690   2.797   3.069   4.141  0.5334 -0.0262 -2.1307
 2878SOL    HW2 8691   2.706   2.956   4.184  0.0815  1.0912 -0.0090
 2879SOL     OW 8692   4.120   0.653   0.630  0.4957 -0.4828  0.0054
 2879SOL    HW1 8693   4.073   0.724   0.673 -0.5659 -1.1940  0.0607
 2879SOL    HW2 8694   4.171   0.696   0.561 -0.2154  0.3226 -0.0389
 2880SOL     OW 8695   4.228   0.201   4.827 -0.0418  0.1342  0.4059
 2880SOL    HW1 8696   4.190   0.176   4.911  0.0239 -1.6291 -0.0526
 2880SOL    HW2 8697   4.158   0.186   4.764  0.2550  0.4107  0.0081
 2881SOL     OW 8698   1.319   4.574   2.446  0.1515 -0.1865  0.2210
 2881SOL    HW1 8699   1.319   4.506   2.379  0.3256  0.5111 -0.4976
 2881SOL    HW2 8700   1.385   4.546   2.510  0.7731 -0.3006 -0.4693
 2882SOL     OW 8701   4.048   2.166   0.086  0.7296 -0.4487  0.2020
 2882SOL    HW1 8702   4.085   2.225   0.020 -2.1094  1.0791 -0.1883
 2882SOL    HW2 8703   4.086   2.080   0.066  0.7568  0.1662 -2.7949
 2883SOL     OW 8704   0.201   3.767   2.012 -0.4255 -0.0076 -0.0248
 2883SOL    HW1 8705   0.227   3.747   1.922 -0.2352 -2.9391  0.5728
 2883SOL    HW2 8706   0.283   3.763   2.061 -0.7738 -0.2781  0.5409
 2884SOL     OW 8707   1.781   1.370   4.381 -0.1344 -0.0924  0.3151
 2884SOL    HW1 8708   1.716   1.316   4.425  0.1735  0.0003  0.8937
 2884SOL    HW2 8709   1.774   1.456   4.423 -1.3726  0.6750 -1.3263
 2885SOL     OW 8710   3.272   3.267   1.084  0.0440 -0.1317 -0.0513
 2885SOL    HW1 8711   3.304   3.350   1.120  0.0013 -0.5437  0.9827
 2885SOL    HW2 8712   3.254   3.214   1.162  0.1905 -1.1506 -0.7052
 2886SOL     OW 8713   3.178   0.836   2.872  0.4443 -0.8243 -0.1155
 2886SOL    HW1 8714   3.271   0.842   2.850  0.4497 -0.5161 -0.0179
 2886SOL    HW2 8715   3.137   0.798   2.795 -0.0919  3.3883 -2.2044
 2887SOL     OW 8716   4.784   3.235   1.171 -0.1548 -0.0178 -0.0444
 2887SOL    HW1 8717   4.870   3.234   1.213 -0.2229 -0.6126  0.0969
 2887SOL    HW2 8718   4.737   3.163   1.213 -0.8526  0.5497  0.1425
 2888SOL     OW 8719   1.494   3.363   3.366 -0.3622  0.8905  0.4349
 2888SOL    HW1 8720   1.531   3.330   3.447  1.0787 -0.0493 -0.5646
 2888SOL    HW2 8721   1.487   3.286   3.309  1.0819  1.8923 -1.2220
 2889SOL     OW 8722   1.980   4.823   2.190 -0.2550 -0.3694  0.4377
 2889SOL    HW1 8723   1.967   4.917   2.186  0.1902 -0.0763  3.5117
 2889SOL    HW2 8724   2.073   4.811   2.171  0.0395  0.0094  1.5735
 2890SOL     OW 8725   4.298   3.018   4.325  0.4319  0.0838  0.3200
 2890SOL    HW1 8726   4.264   3.107   4.333  0.7100  0.2045  0.1607
 2890SOL    HW2 8727   4.265   2.987   4.240  1.4583  0.5270 -0.2594
 2891SOL     OW 8728   2.857   0.806   3.451 -0.1009  0.4457 -0.2232
 2891SOL    HW1 8729   2.940   0.761   3.432  0.2149  0.5168  0.8811
 2891SOL    HW2 8730   2.805   0.741   3.498 -1.6037 -0.3574 -2.7961
 2892SOL     OW 8731   4.230   3.417   2.875  0.3148  0.1037 -0.1366
 2892SOL    HW1 8732   4.183   3.495   2.904 -0.4511 -0.6000  0.5255
 2892SOL    HW2 8733   4.291   3.450   2.808 -0.9725  1.0537 -0.8806
 2893SOL     OW 8734   0.386   1.333   2.789  0.5175 -0.4617 -0.1474
 2893SOL    HW1 8735   0.380   1.425   2.764  1.1584 -0.8845 -2.0625
 2893SOL    HW2 8736   0.398   1.287   2.706  1.5291 -2.1533  0.8865
 2894SOL     OW 8737   3.752   3.824   2.524 -0.4024 -0.0039  0.0207
 2894SOL    HW1 8738   3.736   3.912   2.490  1.0803 -0.2886 -1.5800
 2894SOL    HW2 8739   3.845   3.825   2.549 -0.2409 -1.2392 -0.4572
 2895SOL     OW 8740   4.468   0.385   0.187 -0.1969 -0.1478 -0.0442
 2895SOL    HW1 8741   4.536   0.395   0.120  0.0843  2.9662  0.5658
 2895SOL    HW2 8742   4.516   0.360   0.266 -0.2145 -1.2087 -0.3500
 2896SOL     OW 8743   3.958   1.726   3.385 -0.1431 -0.1744  0.5851
 2896SOL    HW1 8744   3.890   1.663   3.407 -1.0889  0.1164 -1.3173
 2896SOL    HW2 8745   3.912   1.811   3.384  0.2219  0.0255 -0.7032
 2897SOL     OW 8746   4.947   1.718   1.795  0.1927 -0.1842 -0.1201
 2897SOL    HW1 8747   4.916   1.685   1.711  1.2017  0.1104 -0.6275
 2897SOL    HW2 8748   4.913   1.657   1.859 -1.8142  0.3805 -0.5738
 2898SOL     OW 8749   0.477   4.034   0.471 -0.1072  0.1220 -0.2115
 2898SOL    HW1 8750   0.570   4.025   0.450  0.0415 -1.6654  1.0163
 2898SOL    HW2 8751   0.433   3.970   0.416 -0.0387 -2.3760  2.4092
 2899SOL     OW 8752   1.387   3.443   3.687 -0.5992 -0.5003 -0.0116
 2899SOL    HW1 8753   1.418   3.487   3.608  0.3606 -2.0489 -0.5489
 2899SOL    HW2 8754   1.456   3.456   3.751 -0.7486 -0.4148  0.1327
 2900SOL     OW 8755   2.626   1.161   3.328  0.1683  0.4146 -0.2670
 2900SOL    HW1 8756   2.585   1.236   3.372 -0.1086 -0.0741  0.3225
 2900SOL    HW2 8757   2.666   1.111   3.399  1.0711  0.4318 -0.7486
 2901SOL     OW 8758   3.852   4.170   3.225  0.0390  0.3055 -0.1759
 2901SOL    HW1 8759   3.784   4.229   3.256 -0.4448 -0.7685  0.8989
 2901SOL    HW2 8760   3.893   4.137   3.305  1.1720  0.1740 -0.7865
 2902SOL     OW 8761   0.710   3.333   4.418 -0.0563  0.4237 -0.7639
 2902SOL    HW1 8762   0.736   3.397   4.352  0.1296  1.4976  0.3161
 2902SOL    HW2 8763   0.682   3.385   4.493 -2.5602 -0.7367 -0.8044
 2903SOL     OW 8764   2.854   4.483   3.632  0.0086  0.2518 -0.0871
 2903SOL    HW1 8765   2.927   4.494   3.693 -0.7583  0.5928  0.8067
 2903SOL    HW2 8766   2.778   4.519   3.679 -0.9154 -0.9614 -0.5929
 2904SOL     OW 8767   0.038   2.556   3.594 -0.2552  0.3724 -0.0121
 2904SOL    HW1 8768   0.043   2.633   3.650  3.3098  0.5416 -0.3132
 2904SOL    HW2 8769   0.032   2.591   3.505  0.7859  0.3356 -0.1103
 2905SOL     OW 8770   0.539   1.285   1.324 -0.1154 -0.3209 -0.3289
 2905SOL    HW1 8771   0.515   1.341   1.250  1.1040 -0.5458 -0.9124
 2905SOL    HW2 8772   0.531   1.196   1.290  0.1930 -0.4330 -0.1056
 2906SOL     OW 8773   4.020   2.562   0.964  0.4056 -0.1477 -0.1031
 2906SOL    HW1 8774   4.059   2.597   0.884  0.4020  0.8888  0.3321
 2906SOL    HW2 8775   3.936   2.525   0.936  0.5315 -0.0449 -0.6158
 2907SOL     OW 8776   1.084   4.016   2.105 -0.3710 -0.4703 -0.2497
 2907SOL    HW1 8777   1.067   3.923   2.093  1.0670 -0.6536 -1.0886
 2907SOL    HW2 8778   0.999   4.058   2.089 -0.8690 -1.5740 -0.5968
 2908SOL     OW 8779   1.762   2.764   0.193 -0.2817  0.1308  0.7651
 2908SOL    HW1 8780   1.744   2.762   0.286 -1.6871 -0.5734  0.4957
 2908SOL    HW2 8781   1.684   2.802   0.153  0.3410  0.5367 -0.1316
 2909SOL     OW 8782   0.281   4.258   3.699  0.2484  0.0502  0.2994
 2909SOL    HW1 8783   0.318   4.200   3.764 -1.5012  0.0322  1.3354
 2909SOL    HW2 8784   0.207   4.300   3.743  2.5890  4.7777  0.4081
 2910SOL     OW 8785   0.089   1.750   4.000 -0.0659  0.1824 -0.0586
 2910SOL    HW1 8786   0.046   1.677   3.954 -0.3570  1.5629 -2.1314
 2910SOL    HW2 8787   0.181   1.744   3.974 -0.2855  1.1445 -1.1715
 2911SOL     OW 8788   1.200   0.127   2.166  0.1915 -0.0002 -0.0132
 2911SOL    HW1 8789   1.109   0.152   2.146  0.5367  2.8477  1.3982
 2911SOL    HW2 8790   1.216   0.050   2.111 -1.7388  1.8399 -3.5684
 2912SOL     OW 8791   0.177   3.663   1.728  0.2292 -0.6321  0.1261
 2912SOL    HW1 8792   0.118   3.687   1.656  0.3661 -0.5938  0.0279
 2912SOL    HW2 8793   0.205   3.574   1.707 -0.3580 -0.9209  0.5427
 2913SOL     OW 8794   1.562   2.079   3.081  0.0075  0.0792  0.1719
 2913SOL    HW1 8795   1.657   2.066   3.089  0.2302  0.0648 -1.9190
 2913SOL    HW2 8796   1.531   1.997   3.043 -0.6316  0.6200 -0.4697
 2914SOL     OW 8797   0.352   1.841   1.480 -0.0893 -0.2595 -0.9623
 2914SOL    HW1 8798   0.362   1.843   1.385 -1.1556 -1.5988 -1.1402
 2914SOL    HW2 8799   0.261   1.813   1.494 -0.0047  0.0804  0.4545
 2915SOL     OW 8800   2.008   4.896   2.645 -0.0360 -0.7385  0.5589
 2915SOL    HW1 8801   2.053   4.950   2.711 -1.3692 -0.2437  1.1161
 2915SOL    HW2 8802   2.054   4.914   2.564  0.4826  0.1091  1.0179
 2916SOL     OW 8803   3.919   4.502   2.288 -0.6932 -0.0895 -0.6448
 2916SOL    HW1 8804   3.987   4.532   2.348 -0.8409 -0.0355 -0.5041
 2916SOL    HW2 8805   3.838   4.507   2.339 -1.2214  2.3891 -1.6036
 2917SOL     OW 8806   2.553   3.214   3.228  0.2105  0.4322  0.0815
 2917SOL    HW1 8807   2.621   3.273   3.195 -0.1403  0.6218 -0.3122
 2917SOL    HW2 8808   2.485   3.272   3.262  0.3662  0.2418  0.7409
 2918SOL     OW 8809   3.882   3.073   3.262 -0.4883  0.5369  0.0653
 2918SOL    HW1 8810   3.935   3.042   3.189  1.4645  1.4596  1.0436
 2918SOL    HW2 8811   3.847   3.157   3.233  0.1384  0.8188  0.1250
 2919SOL     OW 8812   3.055   4.088   0.533  0.6717  0.1014  0.3684
 2919SOL    HW1 8813   2.968   4.094   0.572  1.3700  1.2518  1.8579
 2919SOL    HW2 8814   3.048   4.018   0.469 -1.4330  0.3774  0.2221
 2920SOL     OW 8815   4.029   0.363   3.651  0.1523 -0.2238  0.3089
 2920SOL    HW1 8816   4.013   0.269   3.637  2.5555 -0.9056  1.6032
 2920SOL    HW2 8817   3.978   0.384   3.729  0.9378 -0.9132  1.0289
 2921SOL     OW 8818   1.826   1.512   1.024 -0.1620 -0.4629 -0.8349
 2921SOL    HW1 8819   1.910   1.546   1.053  0.9134 -1.4889 -2.5863
 2921SOL    HW2 8820   1.771   1.589   1.014  0.8832  0.3251 -0.6435
 2922SOL     OW 8821   2.802   2.621   2.950  0.0157 -0.1603  0.0934
 2922SOL    HW1 8822   2.731   2.559   2.964 -1.3537  0.7144 -2.4221
 2922SOL    HW2 8823   2.876   2.568   2.923 -0.4633 -0.8779  0.1749
 2923SOL     OW 8824   0.617   2.191   2.942  0.4919  0.7384  0.3543
 2923SOL    HW1 8825   0.592   2.190   3.034  0.6122  1.2300  0.3951
 2923SOL    HW2 8826   0.704   2.230   2.941  2.0922 -2.4821  0.4103
 2924SOL     OW 8827   2.530   0.094   3.939 -0.0723  0.2994  0.1085
 2924SOL    HW1 8828   2.520   0.189   3.946  1.2641  0.4706 -0.2150
 2924SOL    HW2 8829   2.458   0.067   3.881 -0.7697  1.0295  0.6022
 2925SOL     OW 8830   4.748   3.597   1.347 -0.2418  0.3621 -0.2096
 2925SOL    HW1 8831   4.663   3.610   1.305  0.2175 -1.1203 -1.6897
 2925SOL    HW2 8832   4.729   3.548   1.426 -1.0090  2.3363  0.9106
 2926SOL     OW 8833   0.920   3.244   4.168  0.4892  0.1663  0.2757
 2926SOL    HW1 8834   0.950   3.265   4.079 -0.1207  0.9014  0.2368
 2926SOL    HW2 8835   0.829   3.274   4.170  1.0073  1.7933  1.6954
 2927SOL     OW 8836   1.462   3.669   2.338 -0.1794  0.6769 -0.6000
 2927SOL    HW1 8837   1.409   3.655   2.259 -0.8304  2.7746 -0.6125
 2927SOL    HW2 8838   1.412   3.627   2.408 -0.8406  0.8633 -0.9480
 2928SOL     OW 8839   2.180   4.951   0.693 -0.0615 -0.2978  0.2813
 2928SOL    HW1 8840   2.210   5.000   0.769  0.5818  0.8768 -0.6985
 2928SOL    HW2 8841   2.217   4.864   0.705  1.9680  0.4933  0.2097
 2929SOL     OW 8842   0.520   2.911   0.712 -0.3195  0.4502  0.2658
 2929SOL    HW1 8843   0.456   2.886   0.779 -0.0087  2.5989  1.4895
 2929SOL    HW2 8844   0.496   3.001   0.689  1.7417  1.0434  0.2037
 2930SOL     OW 8845   0.489   3.085   3.184  0.2814 -0.1372  0.2031
 2930SOL    HW1 8846   0.433   3.163   3.187 -0.5245 -0.7006  0.1556
 2930SOL    HW2 8847   0.569   3.115   3.141 -0.5625  0.3565 -1.1054
 2931SOL     OW 8848   3.777   3.415   2.985 -0.1811  0.5772 -1.1434
 2931SOL    HW1 8849   3.802   3.479   3.052 -0.4334 -1.6201  1.2296
 2931SOL    HW2 8850   3.736   3.344   3.034 -2.2969 -0.2966 -3.8987
 2932SOL     OW 8851   3.706   4.854   4.336 -0.1124 -0.0188 -0.2167
 2932SOL    HW1 8852   3.731   4.786   4.273  0.4889 -0.3354  0.3557
 2932SOL    HW2 8853   3.610   4.851   4.337 -0.1470  0.2174 -1.3500
 2933SOL     OW 8854   4.122   3.281   1.676  0.3835  0.2907 -0.0114
 2933SOL    HW1 8855   4.191   3.278   1.743 -0.7909 -2.0555  1.2285
 2933SOL    HW2 8856   4.075   3.363   1.693  3.2961  2.4577 -1.4932
 2934SOL     OW 8857   0.442   2.012   4.290  0.5141 -0.5126 -0.3439
 2934SOL    HW1 8858   0.354   1.985   4.264  1.0288 -1.1339 -1.5428
 2934SOL    HW2 8859   0.451   2.101   4.257  0.0743 -0.1627  0.4586
 2935SOL     OW 8860   1.420   0.472   1.052 -0.6830 -0.5121  0.0572
 2935SOL    HW1 8861   1.498   0.435   1.094 -1.0547  1.5343  2.7706
 2935SOL    HW2 8862   1.386   0.400   0.999  1.4065 -2.3901  1.0869
 2936SOL     OW 8863   2.818   1.230   0.798  0.1347 -0.1687 -0.0043
 2936SOL    HW1 8864   2.856   1.307   0.840  1.1776  0.0612 -1.3177
 2936SOL    HW2 8865   2.724   1.236   0.818  0.2211  1.3545  0.0535
 2937SOL     OW 8866   0.563   3.602   3.241 -0.3426  0.2958  0.0113
 2937SOL    HW1 8867   0.478   3.587   3.282 -0.3756 -0.1139 -0.2028
 2937SOL    HW2 8868   0.622   3.621   3.314 -0.6371  0.6621  0.1519
 2938SOL     OW 8869   1.323   2.856   4.679 -0.2702  0.1151  0.2350
 2938SOL    HW1 8870   1.309   2.948   4.705  1.5952  0.3124  0.6841
 2938SOL    HW2 8871   1.383   2.861   4.606  1.2598 -0.7945  1.3809
 2939SOL     OW 8872   0.044   4.071   3.904 -0.2259  0.0302 -0.2616
 2939SOL    HW1 8873   0.030   4.163   3.881  0.5043  0.1833 -0.1313
 2939SOL    HW2 8874   0.109   4.074   3.974  0.2966 -0.6029 -0.7033
 2940SOL     OW 8875   2.031   1.797   4.769  0.0907  0.2059 -0.3365
 2940SOL    HW1 8876   1.997   1.756   4.848 -1.4598  0.4325 -0.8500
 2940SOL    HW2 8877   1.971   1.869   4.751  1.6339  1.4951 -0.5581
 2941SOL     OW 8878   4.413   4.319   3.094  0.3379  0.0265 -0.3697
 2941SOL    HW1 8879   4.466   4.378   3.040  0.2378  0.4202 -0.0460
 2941SOL    HW2 8880   4.475   4.256   3.129  0.3094 -0.6341 -1.4592
 2942SOL     OW 8881   2.400   2.590   1.745 -0.0051  0.4444 -0.8413
 2942SOL    HW1 8882   2.395   2.589   1.841 -0.7328 -0.8075 -0.8732
 2942SOL    HW2 8883   2.324   2.640   1.717  0.1167  0.6677 -0.7809
 2943SOL     OW 8884   3.909   3.229   2.834  0.1056  0.3336  0.4770
 2943SOL    HW1 8885   3.880   3.306   2.884 -0.3169 -0.4056  1.4117
 2943SOL    HW2 8886   3.829   3.192   2.798  0.2734  0.1627  0.2787
 2944SOL     OW 8887   4.723   4.569   2.015 -0.3220  0.2426 -0.2306
 2944SOL    HW1 8888   4.719   4.651   2.065  0.7443  0.6393 -0.7616
 2944SOL    HW2 8889   4.721   4.597   1.924 -0.9074 -0.3939 -0.4175
 2945SOL     OW 8890   0.350   1.812   3.067 -0.2516  0.5481 -0.2674
 2945SOL    HW1 8891   0.386   1.840   3.151 -0.4467  1.4995 -0.4937
 2945SOL    HW2 8892   0.409   1.742   3.038 -1.4722 -1.4499  1.7141
 2946SOL     OW 8893   4.338   0.967   0.691  0.3167  0.7032 -0.1115
 2946SOL    HW1 8894   4.375   0.885   0.722 -0.1655  0.9688  1.2201
 2946SOL    HW2 8895   4.296   0.944   0.608  1.4929 -0.0557 -0.5252
 2947SOL     OW 8896   0.605   0.141   4.085 -0.7026 -0.2422 -0.3897
 2947SOL    HW1 8897   0.653   0.066   4.051 -1.4678 -0.9534  0.0535
 2947SOL    HW2 8898   0.552   0.171   4.011 -0.1287  0.0861 -0.6689
 2948SOL     OW 8899   3.660   0.521   0.484  0.0131 -0.0405 -0.2810
 2948SOL    HW1 8900   3.705   0.576   0.549 -1.1852  1.3857 -0.6117
 2948SOL    HW2 8901   3.730   0.493   0.425  0.8210  0.2652  0.4973
 2949SOL     OW 8902   2.062   2.173   4.668  0.1084  0.3050  1.2403
 2949SOL    HW1 8903   2.127   2.106   4.645 -1.7395 -0.7535 -1.3198
 2949SOL    HW2 8904   1.989   2.123   4.704 -1.1608  0.9096 -0.3808
 2950SOL     OW 8905   4.316   4.481   3.890 -0.5535  0.0762 -0.2781
 2950SOL    HW1 8906   4.356   4.505   3.974 -0.1065  2.6300 -1.1387
 2950SOL    HW2 8907   4.286   4.564   3.853 -0.7874 -0.9814 -2.6335
 2951SOL     OW 8908   3.761   0.052   4.150 -0.0018 -0.3804 -0.1964
 2951SOL    HW1 8909   3.750  -0.004   4.227  0.8724  1.7389  1.5958
 2951SOL    HW2 8910   3.809  -0.002   4.087  2.3821 -1.1539  2.1261
 2952SOL     OW 8911   1.426   0.363   3.085 -0.8527  0.2532 -0.7546
 2952SOL    HW1 8912   1.427   0.304   3.160  0.4154  0.6685 -0.4249
 2952SOL    HW2 8913   1.333   0.380   3.069 -1.2400 -1.6983 -0.7612
 2953SOL     OW 8914   3.561   1.792   4.644 -0.5218 -0.0454 -0.4170
 2953SOL    HW1 8915   3.609   1.763   4.566  0.7525 -0.4201  0.4771
 2953SOL    HW2 8916   3.563   1.717   4.703 -0.0513  0.7551  0.6180
 2954SOL     OW 8917   0.218   0.596   2.864 -0.2561 -0.4131  0.0731
 2954SOL    HW1 8918   0.297   0.642   2.838 -0.2032 -0.8076 -0.4855
 2954SOL    HW2 8919   0.238   0.503   2.849 -0.4450 -0.6057  0.9375
 2955SOL     OW 8920   0.553   4.595   4.004 -0.3282  0.1699 -0.1569
 2955SOL    HW1 8921   0.572   4.547   3.923  0.5913  2.0397 -1.1091
 2955SOL    HW2 8922   0.585   4.538   4.074 -0.7150 -1.2843 -1.1247
 2956SOL     OW 8923   2.869   2.849   1.091 -0.4124  0.2532  0.0663
 2956SOL    HW1 8924   2.820   2.914   1.041  0.0123  0.6007  0.0989
 2956SOL    HW2 8925   2.818   2.837   1.171 -1.1455 -0.3691 -0.4693
 2957SOL     OW 8926   1.731   4.403   1.885 -0.3224  0.3769 -0.0035
 2957SOL    HW1 8927   1.689   4.458   1.819 -0.2694  0.8286  0.3347
 2957SOL    HW2 8928   1.808   4.453   1.911  0.3280 -0.3569 -0.4822
 2958SOL     OW 8929   2.736   1.954   4.772  0.1902  0.4056 -0.2847
 2958SOL    HW1 8930   2.780   1.983   4.692  1.8217 -0.4483  0.2467
 2958SOL    HW2 8931   2.647   1.932   4.745  0.9463 -0.6593 -2.0712
 2959SOL     OW 8932   4.458   4.143   4.055  0.3752 -0.4319 -0.2957
 2959SOL    HW1 8933   4.461   4.220   4.113  2.2357 -1.2950  0.8730
 2959SOL    HW2 8934   4.399   4.082   4.100  1.0930 -0.7412  0.2505
 2960SOL     OW 8935   0.026   2.062   3.395  0.0420  0.4125  0.3894
 2960SOL    HW1 8936  -0.068   2.076   3.386 -0.0942 -0.5425  0.1400
 2960SOL    HW2 8937   0.066   2.142   3.362 -0.6446 -0.0025 -1.5789
 2961SOL     OW 8938   0.300   0.758   4.807  0.6222  0.1561  0.4266
 2961SOL    HW1 8939   0.333   0.815   4.737 -0.4487 -0.1343 -0.3415
 2961SOL    HW2 8940   0.364   0.687   4.812  2.0651  1.4755  1.5161
 2962SOL     OW 8941   0.818   4.681   2.347  0.1447  0.4607  0.7673
 2962SOL    HW1 8942   0.866   4.621   2.404  0.1451 -1.6452 -1.3011
 2962SOL    HW2 8943   0.759   4.624   2.297 -1.4741  2.4825  0.2252
 2963SOL     OW 8944   2.049   2.930   4.521  0.0381  0.1324  0.6785
 2963SOL    HW1 8945   2.032   2.858   4.582  0.6047  0.3495  1.1021
 2963SOL    HW2 8946   2.091   2.997   4.574 -1.7371  1.3656  0.6139
 2964SOL     OW 8947   0.567   1.641   2.939  0.3839 -0.6507 -0.2710
 2964SOL    HW1 8948   0.595   1.732   2.934 -0.2094 -0.2956  1.8837
 2964SOL    HW2 8949   0.642   1.595   2.977 -0.1035 -0.6358  0.7286
 2965SOL     OW 8950   0.312   3.455   4.597  0.2620  0.1086  0.1469
 2965SOL    HW1 8951   0.264   3.481   4.676 -1.4232  0.8569 -1.0777
 2965SOL    HW2 8952   0.318   3.360   4.603 -2.3051 -0.1303 -0.1267
 2966SOL     OW 8953   4.693   4.808   2.205  0.1360  0.3683  0.2103
 2966SOL    HW1 8954   4.614   4.784   2.253  1.2617  0.5404  2.2684
 2966SOL    HW2 8955   4.758   4.743   2.232  0.6706  0.1026 -1.6069
 2967SOL     OW 8956   2.793   3.330   3.124 -0.9838 -0.0997 -0.1251
 2967SOL    HW1 8957   2.783   3.345   3.030  1.5997  0.6310 -0.3798
 2967SOL    HW2 8958   2.769   3.413   3.165  0.4291  0.4728 -0.4048
 2968SOL     OW 8959   3.439   3.147   2.063  0.2690  0.4335 -0.2824
 2968SOL    HW1 8960   3.470   3.191   2.142 -0.4226 -2.1155  1.5582
 2968SOL    HW2 8961   3.353   3.185   2.046  0.3471  0.8799  0.3002
 2969SOL     OW 8962   4.531   3.021   3.088 -0.1654  0.0734 -0.3596
 2969SOL    HW1 8963   4.454   3.070   3.057 -1.2550 -0.1244  1.8729
 2969SOL    HW2 8964   4.603   3.054   3.033 -1.5905  1.1500 -1.7004
 2970SOL     OW 8965   3.041   1.312   4.463  0.1153  0.6147  0.4089
 2970SOL    HW1 8966   3.114   1.282   4.517 -0.4000  0.2942  0.9438
 2970SOL    HW2 8967   2.999   1.231   4.433 -0.5195  0.7956  0.7991
 2971SOL     OW 8968   1.339   1.524   2.718  0.2037 -0.4228  0.3874
 2971SOL    HW1 8969   1.261   1.497   2.669  0.9468 -1.8422 -0.0442
 2971SOL    HW2 8970   1.409   1.527   2.653  1.1198 -1.9503  1.2455
 2972SOL     OW 8971   1.527   2.615   4.878  0.2625  0.0440  0.1380
 2972SOL    HW1 8972   1.487   2.696   4.909 -0.4551  0.4559 -1.7028
 2972SOL    HW2 8973   1.614   2.641   4.849 -0.0100  0.2022 -0.5612
 2973SOL     OW 8974   4.039   3.460   0.973  0.3876  0.2599  0.4830
 2973SOL    HW1 8975   4.043   3.522   0.900 -2.4491 -0.2800 -0.2485
 2973SOL    HW2 8976   4.073   3.509   1.047 -1.1360  2.5348 -0.2051
 2974SOL     OW 8977   0.907   2.364   0.862  0.2242  0.5131  1.1423
 2974SOL    HW1 8978   0.995   2.385   0.894  0.4326 -0.0602  0.9663
 2974SOL    HW2 8979   0.852   2.436   0.892  0.8229  1.0517  0.9484
 2975SOL     OW 8980   3.548   4.739   0.747  0.3852  0.2695 -0.0704
 2975SOL    HW1 8981   3.595   4.661   0.716  2.2648  0.4713  2.0331
 2975SOL    HW2 8982   3.617   4.804   0.759 -0.5715  0.9866  1.9519
 2976SOL     OW 8983   3.474   1.175   2.760  0.0307 -0.4233 -0.4993
 2976SOL    HW1 8984   3.545   1.171   2.824 -1.3699  1.6804  1.3378
 2976SOL    HW2 8985   3.483   1.262   2.720 -0.8796 -0.5650 -1.0403
 2977SOL     OW 8986   1.599   3.294   1.832  0.2196  0.7220 -0.3422
 2977SOL    HW1 8987   1.635   3.275   1.745  1.5277  0.0445  0.3130
 2977SOL    HW2 8988   1.657   3.248   1.892 -0.1961  1.8245  0.9502
 2978SOL     OW 8989   4.463   0.352   3.159 -0.2692 -0.3258 -0.0671
 2978SOL    HW1 8990   4.444   0.432   3.111 -0.1428 -0.5637 -0.5224
 2978SOL    HW2 8991   4.457   0.377   3.251  0.1206  0.2940 -0.2040
 2979SOL     OW 8992   0.840   1.453   3.853 -0.3661  0.3614  0.3334
 2979SOL    HW1 8993   0.909   1.470   3.789 -0.4155  1.4454  0.5419
 2979SOL    HW2 8994   0.886   1.413   3.927 -0.1246  0.1588  0.0768
 2980SOL     OW 8995   2.892   0.598   1.869  0.0905 -0.4887  0.4184
 2980SOL    HW1 8996   2.924   0.567   1.954 -0.2554  0.7384  1.0258
 2980SOL    HW2 8997   2.909   0.692   1.870  1.5259 -0.6648 -1.5371
 2981SOL     OW 8998   3.585   2.944   0.780 -0.1314  0.2533  0.1343
 2981SOL    HW1 8999   3.510   2.922   0.835  0.4448 -0.9602  0.4735
 2981SOL    HW2 9000   3.554   3.015   0.724 -2.6635 -2.3334 -2.0412
 2982SOL     OW 9001   1.139   0.474   3.136  0.2699 -0.6266 -0.0339
 2982SOL    HW1 9002   1.098   0.388   3.128 -0.2739 -0.3502 -0.2551
 2982SOL    HW2 9003   1.072   0.529   3.177 -0.2074  0.2347 -1.8318
 2983SOL     OW 9004   4.198   1.129   3.033 -0.3563 -0.3011  0.1786
 2983SOL    HW1 9005   4.288   1.135   3.001  0.1832 -0.6573  1.5655
 2983SOL    HW2 9006   4.159   1.059   2.981  0.7789 -1.5216  0.9136
 2984SOL     OW 9007   1.401   0.247   4.171  0.1909 -0.2731 -0.1851
 2984SOL    HW1 9008   1.305   0.252   4.175  0.1674 -0.7149 -0.1803
 2984SOL    HW2 9009   1.428   0.236   4.262  0.1955 -0.9902 -0.2692
 2985SOL     OW 9010   1.830   0.380   1.953  0.1765  0.8487 -0.1567
 2985SOL    HW1 9011   1.809   0.381   1.860 -0.1176  2.3431 -0.0917
 2985SOL    HW2 9012   1.890   0.453   1.966  0.7948  0.2193  0.7110
 2986SOL     OW 9013   0.864   1.798   2.026  0.0994 -0.2783 -0.5177
 2986SOL    HW1 9014   0.941   1.776   1.974  0.3370 -1.3405  0.2609
 2986SOL    HW2 9015   0.803   1.836   1.962  1.1854  0.4411 -1.1733
 2987SOL     OW 9016   0.266   4.971   1.255 -0.5880 -0.7781 -0.5307
 2987SOL    HW1 9017   0.199   4.931   1.198 -1.1486 -1.0938  0.3298
 2987SOL    HW2 9018   0.218   4.996   1.334  0.1377 -0.1201 -0.2951
 2988SOL     OW 9019   2.724   1.182   2.111  0.3589  0.6753 -0.1180
 2988SOL    HW1 9020   2.695   1.271   2.088 -0.5931  1.0947  2.3997
 2988SOL    HW2 9021   2.819   1.189   2.119  0.3966  1.2055 -0.9747
 2989SOL     OW 9022   1.412   1.270   2.358  0.3940  0.3695 -0.3860
 2989SOL    HW1 9023   1.501   1.241   2.378  0.6390  1.4481  0.2158
 2989SOL    HW2 9024   1.410   1.279   2.263  1.4850  1.9569 -0.2949
 2990SOL     OW 9025   4.798   1.220   3.858  0.4640  0.1477 -0.1644
 2990SOL    HW1 9026   4.790   1.300   3.910 -1.3872 -0.2630  0.2482
 2990SOL    HW2 9027   4.886   1.187   3.878  1.3912  2.1962 -0.5678
 2991SOL     OW 9028   4.322   3.180   2.974  0.2210  0.2848 -0.3169
 2991SOL    HW1 9029   4.249   3.127   2.942  0.9494 -1.2592  0.4749
 2991SOL    HW2 9030   4.303   3.268   2.942 -2.1174  0.0000  0.0692
 2992SOL     OW 9031   1.557   0.126   4.687 -0.3447  0.6586 -0.4832
 2992SOL    HW1 9032   1.572   0.153   4.596 -1.4121  1.8682 -0.3204
 2992SOL    HW2 9033   1.465   0.146   4.703 -0.6915 -1.2693  0.3007
 2993SOL     OW 9034   0.186   0.388   0.857  0.0462 -0.3355 -0.8948
 2993SOL    HW1 9035   0.275   0.354   0.846  0.2752 -0.4886  1.0576
 2993SOL    HW2 9036   0.157   0.352   0.941 -0.7029  2.1102 -0.0212
 2994SOL     OW 9037   1.610   0.560   3.044  0.4652 -0.2890 -0.1204
 2994SOL    HW1 9038   1.531   0.516   3.076  1.0437  0.6441  2.9380
 2994SOL    HW2 9039   1.586   0.653   3.039  1.4909  0.1056  1.5215
 2995SOL     OW 9040   2.298   3.933   1.315  0.0706  0.5078 -0.2546
 2995SOL    HW1 9041   2.223   3.984   1.282  0.9030  3.5585  2.1312
 2995SOL    HW2 9042   2.374   3.976   1.276  0.7124 -1.0559 -0.7618
 2996SOL     OW 9043   4.039   4.974   4.333 -0.1975 -0.1963 -0.4991
 2996SOL    HW1 9044   4.104   4.930   4.387 -0.4392  0.2665  0.1873
 2996SOL    HW2 9045   3.956   4.934   4.357 -0.3154  0.0508 -0.4950
 2997SOL     OW 9046   0.607   4.685   0.475  0.2111  0.0054 -0.4448
 2997SOL    HW1 9047   0.546   4.739   0.425  0.3742  0.2398 -0.3928
 2997SOL    HW2 9048   0.581   4.698   0.566  0.2804  0.0395 -0.4290
 2998SOL     OW 9049   3.948   1.817   0.621 -0.0649  0.6001  0.2780
 2998SOL    HW1 9050   3.962   1.850   0.532 -0.9184  0.4263  0.0636
 2998SOL    HW2 9051   3.870   1.762   0.614  0.0788  0.2774  1.0641
 2999SOL     OW 9052   4.114   3.767   0.389 -0.1923 -0.0767 -0.4897
 2999SOL    HW1 9053   4.027   3.741   0.357 -0.7136  0.5771  0.3279
 2999SOL    HW2 9054   4.156   3.685   0.414 -2.0686 -0.2266  2.7373
 3000SOL     OW 9055   4.079   2.585   3.915  0.2673  0.0066 -0.9435
 3000SOL    HW1 9056   4.084   2.629   3.830 -1.6482  1.6365 -0.3139
 3000SOL    HW2 9057   3.989   2.552   3.920  0.3485 -0.0802  0.4263
 3001SOL     OW 9058   1.665   2.283   3.905  0.5711 -0.2881  0.1980
 3001SOL    HW1 9059   1.707   2.365   3.878  1.0645 -0.6768 -0.2347
 3001SOL    HW2 9060   1.658   2.232   3.825 -1.8807  0.2255  0.0054
 3002SOL     OW 9061   3.997   0.838   3.846 -0.3929  0.5189 -0.3157
 3002SOL    HW1 9062   4.085   0.801   3.847 -0.4941  0.2717 -0.3984
 3002SOL    HW2 9063   3.955   0.799   3.769  0.3478  2.8347 -2.0073
 3003SOL     OW 9064   4.287   0.145   2.192 -0.0130  0.6095 -0.2027
 3003SOL    HW1 9065   4.247   0.226   2.222  0.4199  0.5710  0.4892
 3003SOL    HW2 9066   4.257   0.136   2.101 -1.9043  0.3545  0.4052
 3004SOL     OW 9067   1.101   2.717   1.842  0.4424 -0.5851 -0.4291
 3004SOL    HW1 9068   1.086   2.710   1.936 -3.0561 -1.9373 -0.9488
 3004SOL    HW2 9069   1.139   2.804   1.830  0.6356 -0.2481  2.1735
 3005SOL     OW 9070   1.751   3.027   4.482  0.0016  0.2735  0.1993
 3005SOL    HW1 9071   1.751   3.016   4.387  0.4371  3.3597 -0.2582
 3005SOL    HW2 9072   1.842   3.016   4.508  0.1142  0.7538  0.0272
 3006SOL     OW 9073   3.060   1.595   3.443 -0.3355  0.0959 -0.2684
 3006SOL    HW1 9074   3.131   1.531   3.450  0.1934  0.6621 -0.3458
 3006SOL    HW2 9075   3.017   1.575   3.360 -0.2216 -0.2059 -0.2568
 3007SOL     OW 9076   3.861   2.300   3.794 -0.3558 -0.0118  0.8085
 3007SOL    HW1 9077   3.800   2.234   3.760  1.3030 -0.2064 -2.1002
 3007SOL    HW2 9078   3.823   2.384   3.769  0.5700 -0.1385 -1.1861
 3008SOL     OW 9079   3.020   4.967   1.527  0.0901 -0.4600 -0.1882
 3008SOL    HW1 9080   3.040   4.921   1.609 -0.2357  0.9302  0.7169
 3008SOL    HW2 9081   3.106   4.990   1.491  0.2827 -2.3388 -1.0298
 3009SOL     OW 9082   2.267   4.754   4.479 -0.4448  0.2162  0.1664
 3009SOL    HW1 9083   2.360   4.747   4.501 -0.3678  0.5266 -0.0658
 3009SOL    HW2 9084   2.228   4.797   4.555 -0.1318  1.5465 -0.4035
 3010SOL     OW 9085   4.056   0.605   0.291 -0.6317  0.0132 -0.9362
 3010SOL    HW1 9086   4.026   0.690   0.322 -1.6080 -0.9051  0.7559
 3010SOL    HW2 9087   4.145   0.597   0.325 -0.3773  0.5134 -1.4630
 3011SOL     OW 9088   4.000   3.178   3.932 -0.6415 -0.5045  0.2620
 3011SOL    HW1 9089   3.985   3.086   3.950  0.2920 -0.4860  1.2801
 3011SOL    HW2 9090   4.074   3.179   3.870 -0.7849 -0.4455  0.0910
 3012SOL     OW 9091   2.840   0.991   4.622  0.3382 -0.4411  1.0252
 3012SOL    HW1 9092   2.782   0.921   4.590  0.9497 -0.2370 -0.6313
 3012SOL    HW2 9093   2.900   1.007   4.549  0.1416  1.9126  1.3049
 3013SOL     OW 9094   3.661   2.421   2.722 -0.0799  0.4723  0.4175
 3013SOL    HW1 9095   3.664   2.343   2.777 -0.5219  1.0152  1.2352
 3013SOL    HW2 9096   3.601   2.398   2.651 -0.5722  0.2260  0.9066
 3014SOL     OW 9097   0.803   2.364   4.370  0.2184  0.0001  0.2939
 3014SOL    HW1 9098   0.747   2.428   4.326 -0.3416 -0.0365  0.9351
 3014SOL    HW2 9099   0.742   2.308   4.418  0.8203  0.0523  1.1289
 3015SOL     OW 9100   4.100   3.884   3.096 -0.0852 -0.2179  0.0054
 3015SOL    HW1 9101   4.006   3.866   3.103 -0.2053  0.7429  0.9717
 3015SOL    HW2 9102   4.111   3.971   3.132  0.9013  0.5352 -1.9366
 3016SOL     OW 9103   2.338   0.667   0.380 -0.3796  0.5966  0.2687
 3016SOL    HW1 9104   2.380   0.739   0.335 -0.3384  0.5810  0.2822
 3016SOL    HW2 9105   2.257   0.704   0.415 -0.3217  0.6562  0.3415
 3017SOL     OW 9106   1.810   2.595   2.032 -0.3153 -0.4422  0.1174
 3017SOL    HW1 9107   1.858   2.648   2.095 -1.7609 -0.7196  1.5102
 3017SOL    HW2 9108   1.734   2.562   2.080 -1.4456 -0.7342 -1.7494
 3018SOL     OW 9109   3.148   3.723   2.556  0.5710 -0.3100  0.1575
 3018SOL    HW1 9110   3.228   3.776   2.563  1.8153 -2.1314  0.5814
 3018SOL    HW2 9111   3.108   3.728   2.642 -0.0428  0.9630 -0.1798
 3019SOL     OW 9112   2.272   1.143   2.304  0.5693 -0.2534  0.2770
 3019SOL    HW1 9113   2.265   1.223   2.355  0.6608  0.1941 -0.3904
 3019SOL    HW2 9114   2.356   1.150   2.258 -0.0999  0.0063 -0.9745
 3020SOL     OW 9115   2.407   0.047   4.857 -0.7373  0.1933  0.2513
 3020SOL    HW1 9116   2.491   0.013   4.887 -0.8822  0.0515  0.4999
 3020SOL    HW2 9117   2.344   0.019   4.924 -1.3549 -1.6279 -0.9780
 3021SOL     OW 9118   1.274   1.064   0.632 -0.2818  0.0279 -0.2268
 3021SOL    HW1 9119   1.320   1.130   0.684  2.0071 -0.8191 -1.0696
 3021SOL    HW2 9120   1.342   1.003   0.605 -1.9535 -1.3755 -1.4629
 3022SOL     OW 9121   0.497   1.578   2.443 -0.1194 -0.8736  0.3569
 3022SOL    HW1 9122   0.543   1.498   2.420 -1.2079 -1.2674 -0.5825
 3022SOL    HW2 9123   0.408   1.549   2.463 -0.7303  0.1538 -0.7329
 3023SOL     OW 9124   0.614   4.049   1.910 -0.1497  0.4939  0.4228
 3023SOL    HW1 9125   0.588   4.090   1.992  0.7620 -0.3186  1.1524
 3023SOL    HW2 9126   0.591   3.956   1.922 -0.3598  0.4358 -0.3928
 3024SOL     OW 9127   3.385   4.087   0.231  0.2933 -0.2866 -0.5213
 3024SOL    HW1 9128   3.351   4.002   0.259  0.4476 -0.2018 -0.0524
 3024SOL    HW2 9129   3.336   4.108   0.152 -0.4641 -0.3420 -0.0756
 3025SOL     OW 9130   0.811   1.084   1.607  0.7322  0.3721 -1.0627
 3025SOL    HW1 9131   0.898   1.059   1.639  0.5125 -0.0565 -0.7923
 3025SOL    HW2 9132   0.796   1.171   1.643  1.5881  1.0097 -2.1749
 3026SOL     OW 9133   4.976   1.112   0.607  0.5933 -0.9506 -0.2277
 3026SOL    HW1 9134   4.972   1.086   0.699 -1.2464 -1.8717 -0.5213
 3026SOL    HW2 9135   4.950   1.034   0.559  1.1282 -0.3635 -1.5354
 3027SOL     OW 9136   2.054   3.671   0.476  0.1735 -0.0917 -0.2179
 3027SOL    HW1 9137   1.996   3.633   0.409  0.0984  0.5275 -0.5119
 3027SOL    HW2 9138   2.002   3.670   0.556 -0.5654  1.2257 -0.6537
 3028SOL     OW 9139   4.614   0.837   4.269  0.0433  0.0713  0.2028
 3028SOL    HW1 9140   4.592   0.929   4.285  0.3370 -0.1074  1.8342
 3028SOL    HW2 9141   4.680   0.817   4.335  0.9181 -0.9769 -0.9556
 3029SOL     OW 9142   1.787   2.968   2.584  0.2639  0.2030 -0.2003
 3029SOL    HW1 9143   1.873   2.951   2.545  0.3987  0.8740 -0.2171
 3029SOL    HW2 9144   1.797   2.946   2.676  0.6935  1.0135 -0.0400
 3030SOL     OW 9145   4.139   2.842   2.328 -0.2402 -0.0810  0.0106
 3030SOL    HW1 9146   4.204   2.799   2.273 -0.5922  0.7216 -1.0514
 3030SOL    HW2 9147   4.167   2.933   2.334  0.0141 -0.2208  1.5202
 3031SOL     OW 9148   0.067   4.733   2.030 -0.0777 -0.3053  0.2690
 3031SOL    HW1 9149   0.087   4.667   1.963 -0.7031 -0.1272 -0.1080
 3031SOL    HW2 9150   0.028   4.805   1.980  0.5578  0.3280  0.6862
 3032SOL     OW 9151   1.175   0.750   4.940 -0.2406  0.3491  0.1445
 3032SOL    HW1 9152   1.163   0.758   5.035  2.5042  0.1039  0.5952
 3032SOL    HW2 9153   1.162   0.657   4.923 -0.9162  0.4203  0.2227
 3033SOL     OW 9154   1.580   3.844   3.037 -0.1463 -0.2439  0.3748
 3033SOL    HW1 9155   1.509   3.781   3.045  0.1126 -0.4211  1.3734
 3033SOL    HW2 9156   1.571   3.901   3.114  0.3365  0.1985  0.1121
 3034SOL     OW 9157   3.132   2.555   1.252 -0.0436 -0.9884 -0.0225
 3034SOL    HW1 9158   3.220   2.590   1.245  0.5553 -1.8596  2.3614
 3034SOL    HW2 9159   3.107   2.534   1.162  1.1075  1.6943 -1.0528
 3035SOL     OW 9160   2.829   0.948   0.484  0.3825 -0.3236  0.1198
 3035SOL    HW1 9161   2.844   1.025   0.429  0.5486 -0.4706 -0.0408
 3035SOL    HW2 9162   2.903   0.890   0.466  1.0705  0.1183  1.3652
 3036SOL     OW 9163   0.847   2.465   0.582  0.0508  0.1653  0.2647
 3036SOL    HW1 9164   0.861   2.442   0.674 -0.1416 -1.4943 -0.0859
 3036SOL    HW2 9165   0.771   2.414   0.556  1.0306 -0.6230 -1.2305
 3037SOL     OW 9166   1.959   2.141   2.059  0.1095  0.3311 -0.2330
 3037SOL    HW1 9167   2.051   2.140   2.032  0.1331  1.1754 -0.2174
 3037SOL    HW2 9168   1.947   2.228   2.099 -0.2547 -0.3862  1.2877
 3038SOL     OW 9169   2.078   0.808   3.215  0.2691  0.3209 -0.5256
 3038SOL    HW1 9170   1.996   0.759   3.212  0.5362 -0.1419 -0.3784
 3038SOL    HW2 9171   2.053   0.897   3.190 -0.3024  0.2182 -0.3501
 3039SOL     OW 9172   1.935   2.211   2.653  0.4580 -0.4157 -0.4812
 3039SOL    HW1 9173   1.853   2.227   2.607  0.2227 -1.1893 -0.3482
 3039SOL    HW2 9174   1.910   2.161   2.731  1.0616 -0.7256 -0.4777
 3040SOL     OW 9175   3.993   4.240   2.270  0.5647  0.5271 -0.1526
 3040SOL    HW1 9176   3.989   4.333   2.290  1.4281  0.6678 -0.5758
 3040SOL    HW2 9177   4.026   4.236   2.180 -0.5453 -0.1633 -0.5483
 3041SOL     OW 9178   4.655   2.804   3.764  0.7061  0.0895 -0.2124
 3041SOL    HW1 9179   4.583   2.862   3.738  1.8455  1.5339 -0.2719
 3041SOL    HW2 9180   4.625   2.716   3.740  0.3296  0.9819 -3.3841
 3042SOL     OW 9181   2.579   0.549   0.083  0.4156 -0.0934  1.0134
 3042SOL    HW1 9182   2.550   0.556  -0.008  0.7400  0.8984  0.9670
 3042SOL    HW2 9183   2.562   0.458   0.107 -2.1455  0.2494  0.8115
 3043SOL     OW 9184   1.075   0.296   4.392 -0.0986  0.0456  0.6214
 3043SOL    HW1 9185   1.050   0.282   4.301  0.6952 -1.1967  0.5696
 3043SOL    HW2 9186   1.038   0.222   4.439 -0.1152  0.4369  1.2412
 3044SOL     OW 9187   4.391   1.570   0.387  0.0673  0.3646  0.6384
 3044SOL    HW1 9188   4.432   1.492   0.349 -3.2311 -1.6461  0.7868
 3044SOL    HW2 9189   4.437   1.583   0.470  0.8189 -1.3661  0.5414
 3045SOL     OW 9190   4.178   0.871   0.990  0.2548  0.2744 -0.2800
 3045SOL    HW1 9191   4.209   0.935   1.054  0.3215  0.3348 -0.3718
 3045SOL    HW2 9192   4.244   0.802   0.991 -0.2606 -0.2169  0.4518
 3046SOL     OW 9193   4.340   4.518   1.334  0.6839 -0.0844 -0.1668
 3046SOL    HW1 9194   4.393   4.511   1.254 -0.2046 -0.1381 -0.7618
 3046SOL    HW2 9195   4.294   4.435   1.341 -0.1946  0.3753 -0.2931
 3047SOL     OW 9196   2.502   0.940   3.701  0.0966  0.1927 -0.5137
 3047SOL    HW1 9197   2.504   0.874   3.771 -0.1243 -0.8429 -1.4598
 3047SOL    HW2 9198   2.427   0.994   3.722 -0.3757 -0.5271 -0.3008
 3048SOL     OW 9199   4.167   3.215   4.499  0.2222 -0.2747  0.2952
 3048SOL    HW1 9200   4.129   3.288   4.548 -0.0559  0.3735 -0.8488
 3048SOL    HW2 9201   4.231   3.177   4.559  1.0703  1.5097  0.6019
 3049SOL     OW 9202   1.530   4.135   2.158  0.3430  0.3290 -0.6308
 3049SOL    HW1 9203   1.609   4.088   2.186  0.6503  0.8199 -0.6592
 3049SOL    HW2 9204   1.523   4.117   2.064  0.6802  0.6567 -0.7199
 3050SOL     OW 9205   2.916   4.005   3.507 -0.4665 -0.0063  0.0986
 3050SOL    HW1 9206   2.929   3.931   3.448 -1.3207  0.0487 -0.1634
 3050SOL    HW2 9207   2.907   3.965   3.593 -1.1921 -0.2280 -0.0777
 3051SOL     OW 9208   4.760   4.083   0.714  0.4909 -0.2548 -0.3472
 3051SOL    HW1 9209   4.719   3.998   0.696  1.6969 -0.8664 -0.2515
 3051SOL    HW2 9210   4.686   4.145   0.713 -0.7286 -1.5551  1.4536
 3052SOL     OW 9211   3.004   3.699   4.289  0.2320  0.3300 -0.0361
 3052SOL    HW1 9212   3.040   3.701   4.200  1.5261 -1.1105  0.4130
 3052SOL    HW2 9213   3.061   3.758   4.339  0.1200  0.3585  0.0591
 3053SOL     OW 9214   2.944   1.727   4.349  0.4343  0.1074 -0.0484
 3053SOL    HW1 9215   2.883   1.723   4.423  0.6982  0.7125  0.2033
 3053SOL    HW2 9216   2.889   1.750   4.274 -0.0291 -1.6020 -0.2818
 3054SOL     OW 9217   2.745   3.112   1.926  0.6944  0.5760  0.2414
 3054SOL    HW1 9218   2.794   3.120   2.007  0.5611 -0.2739  0.4184
 3054SOL    HW2 9219   2.812   3.097   1.859  0.7281 -0.1193  0.4145
 3055SOL     OW 9220   3.645   2.873   2.572  0.3157 -0.3531 -0.3469
 3055SOL    HW1 9221   3.678   2.960   2.595 -1.8905  0.2155  1.0325
 3055SOL    HW2 9222   3.677   2.858   2.483  1.4979  1.4802 -0.2882
 3056SOL     OW 9223   0.487   2.229   4.132  0.5252 -0.6611  0.0004
 3056SOL    HW1 9224   0.458   2.261   4.046  0.8769 -1.2989 -0.3627
 3056SOL    HW2 9225   0.559   2.169   4.112 -0.4628 -2.0989  0.6364
 3057SOL     OW 9226   4.011   4.817   1.655  0.1058 -0.1013  0.1146
 3057SOL    HW1 9227   4.047   4.743   1.705 -2.3217 -1.0673  0.5970
 3057SOL    HW2 9228   3.967   4.871   1.721 -0.7131  0.1306 -0.6026
 3058SOL     OW 9229   1.078   0.222   3.003 -0.4317 -0.4873 -0.3180
 3058SOL    HW1 9230   0.990   0.188   3.019 -0.6111 -0.9565 -2.0827
 3058SOL    HW2 9231   1.107   0.176   2.924  1.3557 -0.2411  0.1575
 3059SOL     OW 9232   3.167   4.156   4.152 -0.1790  0.4164  0.2266
 3059SOL    HW1 9233   3.258   4.126   4.155  0.0132  0.9952  0.3174
 3059SOL    HW2 9234   3.167   4.237   4.203 -0.5632  0.8817 -0.4964
 3060SOL     OW 9235   4.674   1.292   3.630  0.0524 -0.6066 -0.2642
 3060SOL    HW1 9236   4.697   1.271   3.720 -0.6399  0.4004  0.1739
 3060SOL    HW2 9237   4.724   1.371   3.609  1.5345 -1.7829 -1.3850
 3061SOL     OW 9238   3.651   1.283   4.682  0.1814  0.4610  0.2070
 3061SOL    HW1 9239   3.654   1.275   4.778 -0.8362  2.0290  0.4188
 3061SOL    HW2 9240   3.667   1.194   4.650  2.4979  0.2289  1.7465
 3062SOL     OW 9241   4.789   2.615   0.545 -0.0251  0.6446 -0.2249
 3062SOL    HW1 9242   4.879   2.585   0.555 -0.3795 -0.6096 -0.7050
 3062SOL    HW2 9243   4.741   2.571   0.615 -0.4771  0.3733 -0.6974
 3063SOL     OW 9244   3.829   3.625   3.161 -0.0463  0.1688 -0.1069
 3063SOL    HW1 9245   3.794   3.713   3.150  0.1039  0.2471  0.0402
 3063SOL    HW2 9246   3.876   3.628   3.244  0.8005  0.2263 -0.5713
 3064SOL     OW 9247   1.051   3.740   3.087  0.8352  0.0377 -0.0649
 3064SOL    HW1 9248   1.060   3.820   3.140 -0.1823  1.3064 -1.6845
 3064SOL    HW2 9249   0.962   3.746   3.051  2.0985  0.3299 -3.4840
 3065SOL     OW 9250   1.601  -0.010   2.847 -0.2813  0.2170 -0.1149
 3065SOL    HW1 9251   1.534   0.024   2.905  0.5437 -0.5229  1.3299
 3065SOL    HW2 9252   1.679   0.042   2.868  0.1040 -0.2676 -0.3329
 3066SOL     OW 9253   1.861   0.458   3.146  0.0895 -0.2067 -0.4621
 3066SOL    HW1 9254   1.802   0.529   3.170 -1.0881 -1.0053 -0.8942
 3066SOL    HW2 9255   1.810   0.379   3.159  1.2879 -0.9722 -0.2495
 3067SOL     OW 9256   1.664   4.505   3.532 -0.0453  0.2357 -0.2462
 3067SOL    HW1 9257   1.676   4.596   3.503  0.8560  0.2706  0.2120
 3067SOL    HW2 9258   1.569   4.495   3.538 -0.1569  1.1866 -0.1724
 3068SOL     OW 9259   2.182   0.760   3.886  0.2129 -0.4447 -0.3289
 3068SOL    HW1 9260   2.169   0.687   3.826 -0.8201 -0.7565  0.2553
 3068SOL    HW2 9261   2.272   0.750   3.917  0.7371 -0.3142 -1.7548
 3069SOL     OW 9262   4.037   3.004   0.744  0.3414  0.5779  0.2670
 3069SOL    HW1 9263   4.057   2.957   0.662 -2.8938  0.5943 -0.6447
 3069SOL    HW2 9264   4.083   3.088   0.735 -1.2719  1.3090 -2.4371
 3070SOL     OW 9265   4.304   0.054   1.712  0.2049 -0.0715 -0.4258
 3070SOL    HW1 9266   4.379   0.041   1.653 -0.3834 -2.1705 -0.8080
 3070SOL    HW2 9267   4.230   0.068   1.654 -0.2075 -1.1426 -0.1848
 3071SOL     OW 9268   2.833   3.676   1.678 -0.3934  0.0050 -0.3772
 3071SOL    HW1 9269   2.893   3.603   1.693 -0.1236  0.4433  0.7873
 3071SOL    HW2 9270   2.746   3.640   1.691 -0.2363 -0.0025  0.7165
 3072SOL     OW 9271   2.227   2.091   3.355  0.1125 -0.0025 -0.1290
 3072SOL    HW1 9272   2.180   2.068   3.275  1.0626 -4.1125  0.2874
 3072SOL    HW2 9273   2.307   2.134   3.324  0.2773 -1.1631 -1.4299
 3073SOL     OW 9274   3.072   3.779   3.668  0.6202 -0.5926  0.1008
 3073SOL    HW1 9275   3.005   3.727   3.623  0.5533  1.3120 -2.1738
 3073SOL    HW2 9276   3.022   3.849   3.711  0.8898 -1.1767  1.4157
 3074SOL     OW 9277   3.622   0.447   3.637  0.0235 -0.3112  0.1029
 3074SOL    HW1 9278   3.682   0.494   3.579 -0.2480  0.7775  0.6727
 3074SOL    HW2 9279   3.560   0.404   3.578  1.3152 -1.4343 -0.4970
 3075SOL     OW 9280   3.321   3.468   1.923  0.3133 -0.3033  0.1249
 3075SOL    HW1 9281   3.294   3.519   1.999 -0.7715  1.1192 -1.1464
 3075SOL    HW2 9282   3.282   3.382   1.937 -2.9835  0.9509 -0.4304
 3076SOL     OW 9283   3.379   1.856   0.248 -0.1141  0.0157  0.3974
 3076SOL    HW1 9284   3.453   1.799   0.225 -0.9858 -0.9631 -0.1043
 3076SOL    HW2 9285   3.366   1.911   0.171 -0.2330 -0.1747  0.2810
 3077SOL     OW 9286   0.104   3.010   4.180 -0.8425  0.3972  0.2304
 3077SOL    HW1 9287   0.134   3.080   4.123 -0.3683  1.2512  1.4719
 3077SOL    HW2 9288   0.109   3.047   4.268 -1.7572 -0.7910  0.8199
 3078SOL     OW 9289   3.135   0.877   1.299  0.0729 -0.6909  0.4056
 3078SOL    HW1 9290   3.211   0.875   1.357  0.6047 -0.1522 -0.2584
 3078SOL    HW2 9291   3.060   0.874   1.358  0.5881 -2.1683  1.0439
 3079SOL     OW 9292   3.756   3.302   4.280  0.0961  0.2971 -0.3588
 3079SOL    HW1 9293   3.815   3.375   4.301  1.6937 -1.1786  0.5187
 3079SOL    HW2 9294   3.798   3.225   4.320 -1.7905 -1.0283 -0.8201
 3080SOL     OW 9295   0.208   2.609   1.439  0.5061  0.3797  0.0054
 3080SOL    HW1 9296   0.182   2.539   1.380  0.1408  0.5980 -0.0983
 3080SOL    HW2 9297   0.207   2.569   1.526 -1.6269  0.7137  0.2043
 3081SOL     OW 9298   0.003   0.955   4.605 -0.0436  0.2572  0.3648
 3081SOL    HW1 9299   0.018   1.012   4.530  0.5950 -0.4061 -0.0263
 3081SOL    HW2 9300   0.069   0.981   4.669  0.7399 -0.5261 -0.1066
 3082SOL     OW 9301   1.408   0.063   3.033  0.4115  0.1964  0.0444
 3082SOL    HW1 9302   1.365   0.110   2.962  0.1481 -0.5956 -0.3294
 3082SOL    HW2 9303   1.352   0.079   3.109 -0.8947 -1.2912 -0.5549
 3083SOL     OW 9304   3.697   4.505   4.400  0.3658 -0.5374 -0.1747
 3083SOL    HW1 9305   3.615   4.546   4.374 -0.3972 -0.7819  1.7245
 3083SOL    HW2 9306   3.763   4.549   4.345 -0.8720  0.4379 -0.9619
 3084SOL     OW 9307   2.985   2.648   1.468 -0.2245  0.0200 -0.2102
 3084SOL    HW1 9308   3.009   2.622   1.379 -1.1335  2.1984 -1.1758
 3084SOL    HW2 9309   3.062   2.694   1.501 -0.1120 -0.2500 -0.0904
 3085SOL     OW 9310   4.741   0.340   3.084 -0.2165  0.0949  0.0758
 3085SOL    HW1 9311   4.663   0.352   3.138 -0.1558  0.0986  0.1636
 3085SOL    HW2 9312   4.714   0.363   2.996 -0.1942  0.5364  0.1833
 3086SOL     OW 9313   3.155   2.512   3.882 -0.5217  0.0996 -0.1813
 3086SOL    HW1 9314   3.140   2.607   3.889  1.0967  0.4012 -0.3539
 3086SOL    HW2 9315   3.081   2.480   3.830 -1.7050  1.0756  0.8328
 3087SOL     OW 9316   0.085   2.745   3.089 -0.6600 -0.2934 -0.0740
 3087SOL    HW1 9317   0.155   2.697   3.044  1.0000  1.1639  0.8057
 3087SOL    HW2 9318   0.069   2.821   3.033 -2.1850 -1.0222 -0.6871
 3088SOL     OW 9319   4.370   3.128   4.910 -0.4291  0.7071 -0.0586
 3088SOL    HW1 9320   4.459   3.124   4.944 -0.7067 -0.0198  0.6026
 3088SOL    HW2 9321   4.344   3.036   4.899 -1.5925  0.8741  1.0952
 3089SOL     OW 9322   1.527   2.143   2.169  0.0071  0.0259  0.5356
 3089SOL    HW1 9323   1.511   2.208   2.101  1.6234  1.9766  1.9031
 3089SOL    HW2 9324   1.452   2.150   2.227  0.0093  0.4506  0.4908
 3090SOL     OW 9325   3.620   0.809   4.278  0.4001  0.0753 -0.4184
 3090SOL    HW1 9326   3.657   0.724   4.254 -0.7451 -0.5878  0.0939
 3090SOL    HW2 9327   3.687   0.872   4.251  2.1189 -1.0736  0.8762
 3091SOL     OW 9328   2.452   4.261   2.162 -0.2392 -0.1874  0.2044
 3091SOL    HW1 9329   2.483   4.176   2.192  0.3929 -0.0999 -0.1826
 3091SOL    HW2 9330   2.389   4.241   2.093  0.2803 -0.3292 -0.2279
 3092SOL     OW 9331   2.649   2.967   0.047 -0.1090  0.3499  0.1560
 3092SOL    HW1 9332   2.688   3.055   0.042  0.0575  0.4757  2.4537
 3092SOL    HW2 9333   2.722   2.907   0.032  0.1489  0.6114  0.3482
 3093SOL     OW 9334   1.942   1.239   1.148  0.2457 -0.6754 -0.0498
 3093SOL    HW1 9335   1.895   1.293   1.086 -0.0413  1.5777  1.9917
 3093SOL    HW2 9336   1.981   1.301   1.210  4.5435 -2.4707 -0.6180
 3094SOL     OW 9337   2.035   0.205   3.431  0.0845  0.3478 -0.5148
 3094SOL    HW1 9338   2.075   0.274   3.378  2.5979  0.4191  1.2720
 3094SOL    HW2 9339   2.010   0.248   3.512  0.0912 -0.5128 -0.0419
 3095SOL     OW 9340   2.856   3.051   4.715 -0.5453  0.2633 -0.3283
 3095SOL    HW1 9341   2.875   2.958   4.728 -2.0133 -0.0874 -0.5521
 3095SOL    HW2 9342   2.768   3.053   4.678 -0.7788  1.7750  0.2206
 3096SOL     OW 9343   2.518   0.529   2.436  0.3275 -0.0355 -0.4963
 3096SOL    HW1 9344   2.560   0.444   2.452 -0.5666 -0.3288  0.3645
 3096SOL    HW2 9345   2.450   0.535   2.502 -0.2688  0.9242 -1.1769
 3097SOL     OW 9346   4.216   3.341   3.787  0.4828 -0.3500  0.7940
 3097SOL    HW1 9347   4.298   3.381   3.760 -0.6792  2.3133  0.8732
 3097SOL    HW2 9348   4.151   3.411   3.778 -1.5785 -2.0072  1.8271
 3098SOL     OW 9349   4.016   0.916   1.560 -0.0396 -0.1003 -0.0818
 3098SOL    HW1 9350   3.971   0.894   1.642 -2.1584  0.4099 -1.0376
 3098SOL    HW2 9351   4.058   0.834   1.534  0.0423 -0.4648  1.1281
 3099SOL     OW 9352   1.651   1.331   1.856  0.6500 -0.1577 -0.0164
 3099SOL    HW1 9353   1.635   1.243   1.890  0.1144  0.2370  0.7906
 3099SOL    HW2 9354   1.745   1.345   1.869  0.2038  0.6158  2.9657
 3100SOL     OW 9355   0.162   2.505   4.617 -0.0463  0.4609  0.1446
 3100SOL    HW1 9356   0.183   2.519   4.709  3.0144  0.2230 -0.4323
 3100SOL    HW2 9357   0.221   2.563   4.570 -0.3863 -0.6382 -1.7267
 3101SOL     OW 9358   3.024   4.105   3.850  0.3160  0.0326  0.3586
 3101SOL    HW1 9359   3.034   4.179   3.910  3.0003  0.1907 -0.1281
 3101SOL    HW2 9360   2.937   4.116   3.812  0.0261  2.0402  1.4584
 3102SOL     OW 9361   1.243   0.703   0.495  0.1624  0.1235 -0.2604
 3102SOL    HW1 9362   1.195   0.729   0.574 -0.2602  0.9800 -0.7814
 3102SOL    HW2 9363   1.334   0.725   0.514 -0.1411  1.7947 -0.5703
 3103SOL     OW 9364   3.205   1.553   0.826  0.1036  0.1726 -0.7221
 3103SOL    HW1 9365   3.114   1.574   0.848 -0.1908 -0.5055 -1.2589
 3103SOL    HW2 9366   3.257   1.607   0.886 -0.6599 -1.3822  1.4327
 3104SOL     OW 9367   0.513   1.523   3.673 -0.2787 -0.4126  0.3080
 3104SOL    HW1 9368   0.517   1.436   3.714  0.5075 -1.5737 -2.0013
 3104SOL    HW2 9369   0.425   1.527   3.636 -0.6082  0.1640  1.1297
 3105SOL     OW 9370   0.289   2.242   3.920 -0.1604 -0.0242  0.3508
 3105SOL    HW1 9371   0.367   2.234   3.865 -0.2955 -0.6136  0.2303
 3105SOL    HW2 9372   0.250   2.325   3.895  0.2135  0.0829  0.1209
 3106SOL     OW 9373   1.664   2.129   3.672  0.7008 -0.1768 -0.6570
 3106SOL    HW1 9374   1.576   2.113   3.707  0.1921 -0.2728 -1.9258
 3106SOL    HW2 9375   1.659   2.099   3.581  1.3905  1.8713 -1.4192
 3107SOL     OW 9376   2.474   2.207   2.837 -0.3114  0.1768  0.2586
 3107SOL    HW1 9377   2.429   2.129   2.804 -0.6555 -0.0057  1.1267
 3107SOL    HW2 9378   2.551   2.215   2.781  0.1851 -1.2844  0.6621
 3108SOL     OW 9379   0.352   2.362   0.633 -0.0603  0.1070 -0.6459
 3108SOL    HW1 9380   0.312   2.314   0.561  1.8581 -1.0372 -1.0088
 3108SOL    HW2 9381   0.415   2.301   0.671  0.7930  1.5606  0.3853
 3109SOL     OW 9382   0.045   0.438   4.518  0.0508  0.5916  0.0281
 3109SOL    HW1 9383  -0.040   0.420   4.559 -0.8534  1.1846 -1.5136
 3109SOL    HW2 9384   0.066   0.358   4.471 -1.1780  1.4385 -2.0895
 3110SOL     OW 9385   1.807   0.532   2.798 -0.7650  0.3048  0.3596
 3110SOL    HW1 9386   1.781   0.567   2.883 -0.7462  1.1128  0.0494
 3110SOL    HW2 9387   1.902   0.544   2.795 -0.6713 -0.3998  0.5201
 3111SOL     OW 9388   2.496   4.635   1.115  0.1468  0.3515 -0.1702
 3111SOL    HW1 9389   2.585   4.633   1.149  0.7011  0.4676 -1.5286
 3111SOL    HW2 9390   2.467   4.725   1.128  0.3128  0.3719  0.0645
 3112SOL     OW 9391   4.044   0.467   4.224 -0.3795 -0.6432  0.4228
 3112SOL    HW1 9392   4.074   0.502   4.308  0.1921  0.7711 -0.3451
 3112SOL    HW2 9393   4.112   0.405   4.198  0.4978  0.4480  0.0443
 3113SOL     OW 9394   0.681   4.768   1.472 -0.2952  0.0780 -0.3875
 3113SOL    HW1 9395   0.635   4.831   1.416 -0.4347  0.2259 -0.1108
 3113SOL    HW2 9396   0.621   4.754   1.546  0.8779  1.7220  0.9464
 3114SOL     OW 9397   1.525   0.467   4.061  0.3913 -0.3385  0.5688
 3114SOL    HW1 9398   1.608   0.483   4.104  0.4562  1.5606 -0.1805
 3114SOL    HW2 9399   1.489   0.391   4.106  1.1089  0.6564  2.9761
 3115SOL     OW 9400   0.948   4.854   1.179 -0.3941  0.1092 -0.8642
 3115SOL    HW1 9401   0.973   4.803   1.103 -1.7233 -0.0885 -1.1898
 3115SOL    HW2 9402   0.892   4.923   1.145 -0.3956  0.4681 -0.1600
 3116SOL     OW 9403   4.119   4.318   1.352 -0.6995 -0.1224  0.1813
 3116SOL    HW1 9404   4.122   4.321   1.256  0.1778  0.3399  0.2131
 3116SOL    HW2 9405   4.026   4.313   1.372 -1.0440  1.7194 -0.6653
 3117SOL     OW 9406   0.701   0.106   2.565  0.1478 -0.4173  0.0564
 3117SOL    HW1 9407   0.751   0.026   2.549  0.6892  0.0586 -0.7067
 3117SOL    HW2 9408   0.759   0.176   2.537  0.3582  0.3780  2.2905
 3118SOL     OW 9409   2.849   4.158   0.085  0.4780  0.0848  0.2281
 3118SOL    HW1 9410   2.883   4.183   0.171  0.5135  1.4061 -0.1436
 3118SOL    HW2 9411   2.925   4.160   0.028  0.2669  0.2878 -0.0493
 3119SOL     OW 9412   2.294   4.847   1.071  0.3705  0.5553 -0.1487
 3119SOL    HW1 9413   2.220   4.831   1.128 -0.3232  0.7191 -0.9762
 3119SOL    HW2 9414   2.311   4.941   1.080  2.1748  0.1008  2.0125
 3120SOL     OW 9415   3.253   0.438   0.079  0.8085  0.0690  0.0771
 3120SOL    HW1 9416   3.204   0.494   0.019  0.4475  0.3310  0.6048
 3120SOL    HW2 9417   3.344   0.466   0.069  0.9895 -0.9768 -1.5149
 3121SOL     OW 9418   2.587   4.434   1.880 -0.5047 -0.5021 -0.1064
 3121SOL    HW1 9419   2.625   4.522   1.877  1.2936 -1.1226  1.7597
 3121SOL    HW2 9420   2.495   4.447   1.903 -0.1166  0.8682  0.7351
 3122SOL     OW 9421   1.099   2.769   4.585  0.6752 -0.5824  0.3945
 3122SOL    HW1 9422   1.185   2.801   4.613 -0.7231  3.5284  0.5913
 3122SOL    HW2 9423   1.079   2.699   4.646  3.6112 -1.3897  0.6216
 3123SOL     OW 9424   1.331   0.245   4.748  0.3770  0.2469  0.4373
 3123SOL    HW1 9425   1.366   0.280   4.829  0.0802  0.4590  0.4735
 3123SOL    HW2 9426   1.304   0.321   4.698  0.1524  0.0938  0.3238
 3124SOL     OW 9427   1.743   2.825   1.110  0.7411  0.0743  0.2731
 3124SOL    HW1 9428   1.728   2.919   1.105  1.5179  0.2422  0.8787
 3124SOL    HW2 9429   1.694   2.797   1.187 -1.2666 -0.4111 -1.1163
 3125SOL     OW 9430   2.871   3.398   1.980  0.0593  0.0406  0.3787
 3125SOL    HW1 9431   2.794   3.455   1.984  0.4873  0.6694 -0.1390
 3125SOL    HW2 9432   2.835   3.310   1.989 -0.7785  0.2880 -0.3688
 3126SOL     OW 9433   3.932   3.110   4.398 -0.2491  0.6259 -0.2928
 3126SOL    HW1 9434   3.929   3.021   4.363 -1.1245  0.6580 -0.3247
 3126SOL    HW2 9435   4.025   3.127   4.412  0.1377  0.5311 -2.3999
 3127SOL     OW 9436   2.986   2.724   3.777 -0.3591  0.1462  0.4972
 3127SOL    HW1 9437   2.910   2.779   3.798 -0.5778 -0.2932  0.8830
 3127SOL    HW2 9438   3.009   2.749   3.687  1.3480  2.9301  1.5724
 3128SOL     OW 9439   0.147   3.694   4.792  0.3676 -0.1520  0.4901
 3128SOL    HW1 9440   0.237   3.727   4.800  0.7050 -0.4110 -1.5478
 3128SOL    HW2 9441   0.155   3.599   4.800  0.2073 -0.1428  0.7635
 3129SOL     OW 9442   3.650   2.218   2.375  0.7920  0.2945 -0.2955
 3129SOL    HW1 9443   3.592   2.294   2.376  0.2264 -0.1384  0.5106
 3129SOL    HW2 9444   3.708   2.231   2.450  1.9974  0.8963 -1.2845
 3130SOL     OW 9445   2.018   1.195   1.615  0.0919 -0.1484 -0.2974
 3130SOL    HW1 9446   2.022   1.280   1.659 -0.0266 -0.6147  0.6653
 3130SOL    HW2 9447   2.075   1.203   1.539  1.9255  0.0823  1.0335
 3131SOL     OW 9448   0.793   4.524   4.169 -0.8071  0.1398  0.0191
 3131SOL    HW1 9449   0.865   4.507   4.230 -1.4904  0.0886  0.8250
 3131SOL    HW2 9450   0.832   4.511   4.083  0.0091 -0.4709  0.4599
 3132SOL     OW 9451   4.230   3.507   1.416 -0.2615  0.3440 -0.0685
 3132SOL    HW1 9452   4.149   3.457   1.423 -0.2804  0.4609  0.6885
 3132SOL    HW2 9453   4.258   3.496   1.326 -0.3700 -0.8628  0.0356
 3133SOL     OW 9454   0.438   3.178   0.636 -0.3584  0.2100  0.0929
 3133SOL    HW1 9455   0.342   3.183   0.638 -0.3786  2.9001 -2.0265
 3133SOL    HW2 9456   0.467   3.264   0.665  1.3415  0.1867 -1.3832
 3134SOL     OW 9457   1.936   0.282   4.593 -0.0003  0.2827 -0.2725
 3134SOL    HW1 9458   1.966   0.317   4.677 -1.4496  0.1705  0.3382
 3134SOL    HW2 9459   1.912   0.359   4.542  0.2133  0.3240 -0.3101
 3135SOL     OW 9460   2.445   0.571   0.780  0.0593  0.3596 -0.0762
 3135SOL    HW1 9461   2.458   0.662   0.754  0.4801  1.2103  2.8145
 3135SOL    HW2 9462   2.520   0.550   0.835 -1.9725 -0.3347  2.6729
 3136SOL     OW 9463   2.291   3.928   1.690  0.2185 -0.3052  0.0771
 3136SOL    HW1 9464   2.329   3.845   1.718  0.2284 -0.9124 -1.6299
 3136SOL    HW2 9465   2.294   3.983   1.768 -0.2463 -2.0515  1.3928
 3137SOL     OW 9466   0.465   2.940   2.088 -0.4571  1.3401 -0.5477
 3137SOL    HW1 9467   0.538   2.924   2.148 -0.5301 -0.5167 -0.9128
 3137SOL    HW2 9468   0.396   2.974   2.145  0.0572  1.3210  0.1148
 3138SOL     OW 9469   2.677   3.962   2.380  0.6921 -0.2075  0.2365
 3138SOL    HW1 9470   2.622   3.951   2.457 -0.4381 -1.7315 -0.7190
 3138SOL    HW2 9471   2.762   3.925   2.405 -0.1073 -2.0969  0.3311
 3139SOL     OW 9472   3.499   3.231   3.579  0.0978  0.4849 -0.4708
 3139SOL    HW1 9473   3.577   3.281   3.554 -0.8510  2.8193  0.8304
 3139SOL    HW2 9474   3.484   3.255   3.670 -0.4822 -2.2581  0.2366
 3140SOL     OW 9475   3.644   0.089   1.386  0.1837 -0.5006 -0.0865
 3140SOL    HW1 9476   3.645  -0.006   1.400  0.2652 -0.6512 -1.0440
 3140SOL    HW2 9477   3.568   0.105   1.331  1.3637 -0.3092 -1.7475
 3141SOL     OW 9478   3.977   2.558   4.987 -0.2264  0.2399 -0.9407
 3141SOL    HW1 9479   4.060   2.529   4.950  1.5358  0.4812  2.5065
 3141SOL    HW2 9480   3.983   2.653   4.986 -0.7405  0.2746 -1.1593
 3142SOL     OW 9481   3.388   4.569   4.738  0.3897  0.5175 -0.0285
 3142SOL    HW1 9482   3.431   4.654   4.744  1.0518  0.3995 -2.2086
 3142SOL    HW2 9483   3.312   4.577   4.795 -1.1000  3.5705 -2.1238
 3143SOL     OW 9484   4.270   0.205   2.482  0.1264  0.3063  1.0187
 3143SOL    HW1 9485   4.280   0.288   2.437  2.1014  1.0571  2.6799
 3143SOL    HW2 9486   4.272   0.139   2.412 -0.3553  1.5621 -0.2244
 3144SOL     OW 9487   4.451   3.810   1.295 -0.6236  0.2412 -0.3297
 3144SOL    HW1 9488   4.423   3.768   1.377 -0.5844  0.5319 -0.1683
 3144SOL    HW2 9489   4.481   3.737   1.241 -0.4176  0.0693  0.0069
 3145SOL     OW 9490   4.532   0.053   2.253  0.3775 -0.1123 -0.0922
 3145SOL    HW1 9491   4.604   0.107   2.220 -0.4139  0.9251 -0.1669
 3145SOL    HW2 9492   4.453   0.096   2.221 -0.4048  0.3128  2.1894
 3146SOL     OW 9493   0.790   1.711   3.757 -0.4228  0.1040 -0.4805
 3146SOL    HW1 9494   0.774   1.623   3.793 -1.5615 -0.6757 -2.6929
 3146SOL    HW2 9495   0.882   1.709   3.730 -0.6273 -0.6984 -1.1779
 3147SOL     OW 9496   3.494   3.773   2.059  0.0552  0.8605 -0.0535
 3147SOL    HW1 9497   3.453   3.722   1.989  0.3403  1.8373 -0.9600
 3147SOL    HW2 9498   3.560   3.715   2.096 -0.3111  0.2217 -0.3830
 3148SOL     OW 9499   1.579   3.797   3.418  0.1448  0.8556  0.5086
 3148SOL    HW1 9500   1.520   3.746   3.363 -0.1086  1.0290  0.6186
 3148SOL    HW2 9501   1.637   3.731   3.457  0.5523  0.7642 -0.2282
 3149SOL     OW 9502   0.458   1.026   1.325  0.0766 -0.5644 -0.2050
 3149SOL    HW1 9503   0.452   0.937   1.289  1.0848 -0.0401 -1.7471
 3149SOL    HW2 9504   0.368   1.047   1.351 -0.3047 -1.7663 -0.4836
 3150SOL     OW 9505   0.940   2.635   1.599 -0.3526 -0.5361  0.1317
 3150SOL    HW1 9506   0.994   2.647   1.521  0.1539 -0.9708  0.4071
 3150SOL    HW2 9507   0.983   2.688   1.666 -1.2164  0.4445 -0.0730
 3151SOL     OW 9508   2.483   0.907   0.340 -0.1717  0.1153  0.0502
 3151SOL    HW1 9509   2.503   0.989   0.294  1.1840 -0.7826 -1.0656
 3151SOL    HW2 9510   2.554   0.847   0.314 -1.4797 -1.6205  0.2943
 3152SOL     OW 9511   0.299   0.144   0.513 -0.2413  0.2076 -0.2619
 3152SOL    HW1 9512   0.292   0.067   0.569 -1.5582 -0.1457 -0.8739
 3152SOL    HW2 9513   0.208   0.173   0.501  0.1920  1.5656 -0.4471
 3153SOL     OW 9514   3.105   3.482   2.424  0.0595  0.4785 -0.4859
 3153SOL    HW1 9515   3.028   3.491   2.369 -0.1439  1.7834 -0.0201
 3153SOL    HW2 9516   3.130   3.572   2.446 -0.9561  0.0860  2.9931
 3154SOL     OW 9517   4.571   0.186   1.901 -0.6272 -0.4383  0.1819
 3154SOL    HW1 9518   4.487   0.174   1.857 -0.9522 -1.0486  0.9407
 3154SOL    HW2 9519   4.582   0.281   1.906  0.2628 -0.2898 -2.7260
 3155SOL     OW 9520   4.823   2.558   0.281  0.0218  0.1705 -0.3601
 3155SOL    HW1 9521   4.766   2.616   0.230 -0.3553 -0.3748 -0.5736
 3155SOL    HW2 9522   4.816   2.590   0.371 -1.7366 -0.7128 -0.1261
 3156SOL     OW 9523   4.040   3.600   3.770 -0.0152 -0.2301 -0.0267
 3156SOL    HW1 9524   4.067   3.691   3.755  0.9517 -0.6081 -0.6442
 3156SOL    HW2 9525   3.948   3.598   3.743 -0.3125  0.7756  0.8636
 3157SOL     OW 9526   1.060   2.185   2.003 -0.1861  0.8372 -0.0747
 3157SOL    HW1 9527   1.005   2.149   1.934  0.2787 -0.0840  0.0215
 3157SOL    HW2 9528   1.007   2.254   2.043 -0.3039  1.6938 -1.6246
 3158SOL     OW 9529   0.774   4.233   1.360  0.0630 -0.9569  0.0510
 3158SOL    HW1 9530   0.831   4.249   1.436  0.3772 -1.9007  0.0322
 3158SOL    HW2 9531   0.689   4.267   1.387 -0.2336 -2.6553  1.4755
 3159SOL     OW 9532   3.989   4.632   4.994 -0.3004 -0.0667 -0.5901
 3159SOL    HW1 9533   4.066   4.606   4.943  0.2151  4.0567 -2.3126
 3159SOL    HW2 9534   3.915   4.597   4.944  0.3381 -1.3383 -0.6873
 3160SOL     OW 9535   1.808   1.037   4.402  0.0871 -0.0975 -0.2886
 3160SOL    HW1 9536   1.861   1.115   4.383 -0.2495  0.5831  1.3727
 3160SOL    HW2 9537   1.742   1.035   4.333  1.8296 -0.5943 -2.0371
 3161SOL     OW 9538   4.830   0.608   4.122  0.8287 -0.6057  0.7347
 3161SOL    HW1 9539   4.799   0.522   4.092 -0.8549  0.0385  0.4730
 3161SOL    HW2 9540   4.787   0.621   4.206 -0.2635  0.6257  0.0402
 3162SOL     OW 9541   2.397   3.474   2.099 -0.2124  0.2430 -0.3114
 3162SOL    HW1 9542   2.340   3.543   2.133  0.4357  0.9036 -0.5457
 3162SOL    HW2 9543   2.383   3.400   2.159 -3.1076 -0.4868 -1.6875
 3163SOL     OW 9544   0.273   3.505   0.524 -0.0951  0.2934 -0.0716
 3163SOL    HW1 9545   0.328   3.436   0.486  0.0496 -0.5016  1.4726
 3163SOL    HW2 9546   0.332   3.553   0.582 -0.3876  1.2500 -0.5401
 3164SOL     OW 9547   0.945   4.938   4.088  0.0189 -0.5767 -0.2321
 3164SOL    HW1 9548   0.983   5.017   4.126 -1.0642 -0.5197  0.7748
 3164SOL    HW2 9549   0.925   4.882   4.163 -2.3580 -0.3776 -0.6459
 3165SOL     OW 9550   3.336   4.412   3.070 -0.0082 -0.4815 -0.3139
 3165SOL    HW1 9551   3.256   4.421   3.018 -0.4958  0.9081  0.6265
 3165SOL    HW2 9552   3.356   4.501   3.100 -0.7825 -1.3507  3.3391
 3166SOL     OW 9553   3.668   1.230   4.952  0.3303  0.7180  0.3914
 3166SOL    HW1 9554   3.584   1.274   4.942  1.2870  2.4071 -1.0701
 3166SOL    HW2 9555   3.647   1.137   4.955 -1.5911  1.1030  0.2064
 3167SOL     OW 9556   4.041   2.753   1.769 -0.4368 -0.2146 -0.1928
 3167SOL    HW1 9557   4.011   2.682   1.826  1.3137  0.2361  1.4219
 3167SOL    HW2 9558   4.010   2.730   1.682 -1.2147 -2.1643  0.5527
 3168SOL     OW 9559   4.139   0.666   1.527  0.6320  0.5008  0.6669
 3168SOL    HW1 9560   4.076   0.595   1.516 -1.2902  2.2519 -0.3933
 3168SOL    HW2 9561   4.158   0.668   1.620 -1.0083 -0.0195  1.0442
 3169SOL     OW 9562   0.925   4.573   2.564  0.0826  0.2634 -0.0240
 3169SOL    HW1 9563   0.893   4.482   2.559  0.8543 -0.2182  2.3797
 3169SOL    HW2 9564   1.008   4.566   2.611  0.6040  2.1506 -0.6086
 3170SOL     OW 9565   3.401   1.544   4.458  0.1883 -0.6584 -0.2116
 3170SOL    HW1 9566   3.321   1.547   4.405 -1.2474 -0.4690  1.8861
 3170SOL    HW2 9567   3.402   1.457   4.497  0.0565 -0.0834  1.1338
 3171SOL     OW 9568   3.627   4.787   1.211  0.3315  0.2850  0.4809
 3171SOL    HW1 9569   3.667   4.774   1.297 -0.9173  1.2835  1.2684
 3171SOL    HW2 9570   3.567   4.713   1.201 -0.1060  0.5782  0.8538
 3172SOL     OW 9571   0.366   3.263   2.115 -0.3834  0.2410 -0.8790
 3172SOL    HW1 9572   0.360   3.248   2.021 -0.5551  0.2942 -0.8778
 3172SOL    HW2 9573   0.282   3.304   2.138  0.4021  2.0278 -1.0441
 3173SOL     OW 9574   0.496   0.312   1.001  0.4617  0.1750 -0.1626
 3173SOL    HW1 9575   0.512   0.243   0.937 -1.1464 -0.3583 -0.0322
 3173SOL    HW2 9576   0.531   0.277   1.083  2.0737  0.6570 -0.5920
 3174SOL     OW 9577   3.931   1.734   1.126  0.2788 -0.0151  0.5068
 3174SOL    HW1 9578   3.837   1.716   1.121  0.6258 -1.8218 -0.1687
 3174SOL    HW2 9579   3.937   1.813   1.180 -1.5058 -1.2553  2.7344
 3175SOL     OW 9580   4.547   1.052   2.226 -0.1764 -0.2819  0.0648
 3175SOL    HW1 9581   4.510   1.113   2.162  0.8717 -1.8906 -2.2140
 3175SOL    HW2 9582   4.642   1.065   2.219  0.1335 -2.6632 -1.1027
 3176SOL     OW 9583   3.761   2.552   1.270  0.1486  0.5947  0.2410
 3176SOL    HW1 9584   3.691   2.575   1.331  0.6229  1.5309  0.4521
 3176SOL    HW2 9585   3.766   2.627   1.211  0.6080  0.2864 -0.1169
 3177SOL     OW 9586   0.332   1.627   3.302 -0.0579  0.5986  0.1038
 3177SOL    HW1 9587   0.425   1.611   3.282  0.2169  0.9674  1.0014
 3177SOL    HW2 9588   0.329   1.719   3.327  0.2976 -0.3899  4.7407
 3178SOL     OW 9589   3.925   0.551   0.937 -0.3969  0.5418  0.6261
 3178SOL    HW1 9590   3.897   0.634   0.975 -0.6576  0.4819  0.5686
 3178SOL    HW2 9591   4.020   0.553   0.941 -0.3566  1.3660 -0.4802
 3179SOL     OW 9592   2.186   0.922   0.145 -0.1873 -0.0156 -0.3366
 3179SOL    HW1 9593   2.113   0.982   0.128  1.3451  2.4059  1.0171
 3179SOL    HW2 9594   2.226   0.956   0.225  2.3116 -1.3623 -0.9207
 3180SOL     OW 9595   2.045   2.954   2.517  0.1893 -0.0184  0.2877
 3180SOL    HW1 9596   2.106   2.984   2.585 -1.9303 -0.5327  2.5929
 3180SOL    HW2 9597   2.059   2.860   2.513  1.0145  0.1331 -0.7937
 3181SOL     OW 9598   1.020   2.900   1.083  0.0925  0.0261  0.2330
 3181SOL    HW1 9599   0.940   2.905   1.135  0.3656 -0.6440  0.7457
 3181SOL    HW2 9600   0.991   2.898   0.992 -0.5963 -1.9814  0.4461
 3182SOL     OW 9601   4.498   1.562   0.012 -0.9495 -0.6835 -0.6433
 3182SOL    HW1 9602   4.454   1.641  -0.020 -1.6574 -0.0522  1.7016
 3182SOL    HW2 9603   4.428   1.510   0.052 -0.2079 -1.6684 -0.5767
 3183SOL     OW 9604   2.624   3.113   3.475 -0.8151 -0.2964  0.4791
 3183SOL    HW1 9605   2.592   3.146   3.392 -0.4701  0.8409  0.7790
 3183SOL    HW2 9606   2.687   3.045   3.452  0.8293  1.4100 -0.2757
 3184SOL     OW 9607   2.285   4.227   0.959  0.6675 -0.7732 -0.0156
 3184SOL    HW1 9608   2.264   4.224   1.052 -0.3575 -1.5153 -0.2460
 3184SOL    HW2 9609   2.325   4.313   0.946 -1.3679  0.3527  0.6899
 3185SOL     OW 9610   0.926   1.232   2.884 -0.7236 -0.0076 -0.0775
 3185SOL    HW1 9611   0.935   1.316   2.839  0.7005  0.6931  1.4417
 3185SOL    HW2 9612   0.831   1.220   2.892 -0.9615  1.4469 -0.3654
 3186SOL     OW 9613   2.543   3.501   2.449 -0.3169  0.0336 -0.4211
 3186SOL    HW1 9614   2.468   3.560   2.456 -1.0988 -1.0071  0.1796
 3186SOL    HW2 9615   2.511   3.417   2.481  1.2536 -0.3140  0.3538
 3187SOL     OW 9616   4.167   2.941   1.924 -0.2552  0.1623 -0.6138
 3187SOL    HW1 9617   4.096   2.997   1.893  1.5523  0.7914 -4.1368
 3187SOL    HW2 9618   4.142   2.853   1.894 -0.6777 -0.0954  0.4270
 3188SOL     OW 9619   1.913   2.598   1.617 -0.1292  0.2827  0.4443
 3188SOL    HW1 9620   1.940   2.670   1.674 -1.2462  0.1585  1.1548
 3188SOL    HW2 9621   1.817   2.603   1.616 -0.1874 -0.7445 -0.0914
 3189SOL     OW 9622   2.210   2.710   4.961 -0.1921 -0.5869  0.5657
 3189SOL    HW1 9623   2.301   2.711   4.929  0.7233 -1.8746  2.8727
 3189SOL    HW2 9624   2.205   2.786   5.020  0.2768 -1.9927  2.5054
 3190SOL     OW 9625   0.179   3.183   0.560 -0.0868 -0.5620  0.3018
 3190SOL    HW1 9626   0.167   3.152   0.650  0.4051  0.8895  0.8964
 3190SOL    HW2 9627   0.097   3.227   0.539  0.1239 -0.1443  0.3574
 3191SOL     OW 9628   3.533   0.433   1.990  0.6376 -0.5046 -0.0993
 3191SOL    HW1 9629   3.475   0.501   2.022  3.7338  2.5678 -0.4132
 3191SOL    HW2 9630   3.476   0.374   1.939 -2.1250  2.3813 -0.6462
 3192SOL     OW 9631   1.990   1.132   3.482 -0.0261 -0.3700  0.0334
 3192SOL    HW1 9632   1.980   1.209   3.426  0.1678  0.4825  1.1470
 3192SOL    HW2 9633   1.901   1.102   3.498 -0.2192  0.6418  0.9589
 3193SOL     OW 9634   1.824   1.727   1.552 -0.7917  0.2440  0.7480
 3193SOL    HW1 9635   1.808   1.773   1.469 -1.5042 -0.1159  0.6785
 3193SOL    HW2 9636   1.882   1.785   1.601  0.4815  0.0027 -0.4111
 3194SOL     OW 9637   0.088   1.636   2.235 -0.4118  0.1922 -0.2587
 3194SOL    HW1 9638   0.081   1.555   2.287 -2.7875  0.3264 -0.2599
 3194SOL    HW2 9639   0.140   1.611   2.159  0.7447 -0.7464  0.7947
 3195SOL     OW 9640   3.633   0.661   3.082 -0.7712  0.7324 -0.1676
 3195SOL    HW1 9641   3.541   0.637   3.070 -0.6099  0.3800 -0.7843
 3195SOL    HW2 9642   3.678   0.576   3.088 -0.8804  0.7686  3.8723
 3196SOL     OW 9643   2.470   3.733   2.880  0.1912  0.3552  0.2464
 3196SOL    HW1 9644   2.387   3.778   2.896 -0.6308 -0.8920 -0.4065
 3196SOL    HW2 9645   2.458   3.689   2.796  0.7393 -1.5774  1.1204
 3197SOL     OW 9646   2.118   0.137   2.786  0.3136  0.0575 -0.0609
 3197SOL    HW1 9647   2.132   0.214   2.840 -1.4800  0.0350  0.4883
 3197SOL    HW2 9648   2.139   0.165   2.697  0.0170  1.0632  0.1834
 3198SOL     OW 9649   1.141   1.155   1.274 -0.2830  0.3235 -0.3099
 3198SOL    HW1 9650   1.122   1.109   1.192  2.0795 -0.3875 -0.5073
 3198SOL    HW2 9651   1.073   1.223   1.278 -1.3576 -0.5554 -2.0846
 3199SOL     OW 9652   3.767   4.441   3.035 -1.0816 -0.3706  0.2803
 3199SOL    HW1 9653   3.848   4.396   3.011 -0.4400  0.9000  0.0025
 3199SOL    HW2 9654   3.709   4.425   2.961 -0.6252 -0.1739 -0.1286
 3200SOL     OW 9655   4.777   1.981   2.048 -0.7909 -0.2584 -0.3155
 3200SOL    HW1 9656   4.720   1.905   2.039 -1.4042  0.1638  0.0078
 3200SOL    HW2 9657   4.850   1.950   2.102 -1.4888 -0.3692  0.5727
 3201SOL     OW 9658   2.594   4.079   3.816 -0.5645 -0.1299 -0.0924
 3201SOL    HW1 9659   2.635   4.138   3.879  1.1101  0.1048 -1.3405
 3201SOL    HW2 9660   2.580   4.133   3.738  0.3272 -1.1845 -1.0104
 3202SOL     OW 9661   0.361   0.249   4.630 -0.4300 -0.4518  0.1111
 3202SOL    HW1 9662   0.409   0.205   4.701  1.2142  2.0361  0.6698
 3202SOL    HW2 9663   0.283   0.284   4.673  0.4827  0.9118  0.7033
 3203SOL     OW 9664   3.804   4.206   0.670  0.3998  0.6529 -0.0074
 3203SOL    HW1 9665   3.737   4.175   0.730  1.0146 -0.8183 -0.0318
 3203SOL    HW2 9666   3.865   4.133   0.663  0.5529  0.9166 -2.1036
 3204SOL     OW 9667   1.398   1.880   4.036 -0.2439  0.0587 -0.2089
 3204SOL    HW1 9668   1.481   1.883   4.084 -0.2409 -4.1920  0.4647
 3204SOL    HW2 9669   1.423   1.865   3.945 -0.2634  0.4728 -0.2820
 3205SOL     OW 9670   2.957   1.529   4.681 -0.0659  0.0388 -0.6366
 3205SOL    HW1 9671   3.032   1.511   4.624  0.9532  0.5993  0.4892
 3205SOL    HW2 9672   2.925   1.442   4.705  0.0708 -0.2085 -1.3038
 3206SOL     OW 9673   4.261   0.836   0.147 -0.1919  0.1284 -0.0478
 3206SOL    HW1 9674   4.188   0.838   0.085 -0.7892  2.0359  0.6450
 3206SOL    HW2 9675   4.316   0.764   0.116 -2.3335 -1.3747 -0.6028
 3207SOL     OW 9676   4.629   3.477   2.924 -0.2239  0.2790 -0.8776
 3207SOL    HW1 9677   4.615   3.533   2.848  2.8588  4.5093  1.2431
 3207SOL    HW2 9678   4.714   3.436   2.908 -0.2504  0.0158 -0.3637
 3208SOL     OW 9679   3.033   2.627   1.000  0.4317  0.4739 -0.2685
 3208SOL    HW1 9680   2.996   2.712   1.023 -2.0574  0.6362 -3.9741
 3208SOL    HW2 9681   3.055   2.635   0.907 -0.2172 -2.9865 -0.8601
 3209SOL     OW 9682   0.568   3.837   3.072 -0.3911  0.4571  0.2964
 3209SOL    HW1 9683   0.527   3.923   3.081  1.1634  1.1712  0.8762
 3209SOL    HW2 9684   0.533   3.786   3.145 -2.3407  0.1131 -0.7958
 3210SOL     OW 9685   0.422   4.256   3.310  0.4128  0.2595  0.1621
 3210SOL    HW1 9686   0.502   4.290   3.350  0.8762  0.9957 -1.3285
 3210SOL    HW2 9687   0.448   4.173   3.270 -0.3344 -1.1079  2.3614
 3211SOL     OW 9688   1.213   2.031   1.386  0.2010  0.2418 -0.0197
 3211SOL    HW1 9689   1.289   2.001   1.436  0.4268  1.9591  0.7470
 3211SOL    HW2 9690   1.168   2.092   1.445 -1.3789 -0.1792 -0.7268
 3212SOL     OW 9691   4.843   0.671   4.425 -0.4547 -0.0146  0.9661
 3212SOL    HW1 9692   4.894   0.746   4.455 -0.2990 -0.6210  2.2693
 3212SOL    HW2 9693   4.904   0.597   4.430 -0.5645 -0.2294 -0.4358
 3213SOL     OW 9694   2.471   1.014   4.853 -0.8113  0.1259  0.7729
 3213SOL    HW1 9695   2.436   0.935   4.813  0.9570 -0.8724  1.1073
 3213SOL    HW2 9696   2.550   0.985   4.900  0.9806  2.3405 -0.6351
 3214SOL     OW 9697   3.652   4.208   2.604  0.5962  0.3157 -0.1726
 3214SOL    HW1 9698   3.718   4.138   2.603  1.5450  1.1714  0.5467
 3214SOL    HW2 9699   3.601   4.194   2.524 -1.5612 -3.3309  1.5915
 3215SOL     OW 9700   1.092   3.477   1.973 -0.4614 -0.1611 -0.0126
 3215SOL    HW1 9701   1.176   3.494   1.931 -1.2551 -0.5095 -1.8428
 3215SOL    HW2 9702   1.101   3.390   2.011  0.0164 -0.1690 -0.1393
 3216SOL     OW 9703   1.684   2.611   0.695 -0.4973  0.8026  0.2311
 3216SOL    HW1 9704   1.738   2.676   0.739 -1.0625  1.1463  0.4343
 3216SOL    HW2 9705   1.738   2.532   0.692 -0.7297  0.5197  2.2946
 3217SOL     OW 9706   4.749   3.862   3.009 -0.0656 -0.2761  0.5933
 3217SOL    HW1 9707   4.736   3.857   3.104  0.6500  2.8445  0.9505
 3217SOL    HW2 9708   4.682   3.924   2.979 -0.1012 -1.0077 -0.9309
 3218SOL     OW 9709   3.709   2.818   2.058  0.3028 -0.0994 -0.0088
 3218SOL    HW1 9710   3.767   2.825   2.134  0.9970 -1.6972 -0.3505
 3218SOL    HW2 9711   3.706   2.906   2.021  2.3196  0.0775  0.1786
 3219SOL     OW 9712   2.201   4.939   0.036  0.4150 -0.5101 -0.2539
 3219SOL    HW1 9713   2.109   4.965   0.048 -0.0466 -1.8185 -0.7203
 3219SOL    HW2 9714   2.197   4.844   0.022  2.0891 -1.0969  2.5195
 3220SOL     OW 9715   3.704   3.499   1.528  0.0060  0.6111  0.3481
 3220SOL    HW1 9716   3.717   3.406   1.512 -2.1179  0.6266 -2.2317
 3220SOL    HW2 9717   3.663   3.503   1.615 -0.4234 -0.9331  0.2404
 3221SOL     OW 9718   1.709   3.250   4.629  0.1213 -0.9208 -0.4222
 3221SOL    HW1 9719   1.789   3.241   4.680  1.3587 -1.3025 -2.3000
 3221SOL    HW2 9720   1.712   3.177   4.566 -0.8439  0.0054 -1.6082
 3222SOL     OW 9721   0.436   2.229   4.605  0.0297 -0.1184 -0.9055
 3222SOL    HW1 9722   0.484   2.307   4.577  2.0906 -1.3567 -1.0155
 3222SOL    HW2 9723   0.456   2.219   4.698  0.2217 -0.8135 -1.0132
 3223SOL     OW 9724   0.809   4.943   0.211 -0.2833 -0.5326  0.0214
 3223SOL    HW1 9725   0.728   4.910   0.174 -0.7917 -0.5266  1.1041
 3223SOL    HW2 9726   0.788   5.032   0.239 -0.8513 -1.5670  3.1887
 3224SOL     OW 9727   1.509   1.397   1.309  0.2547 -0.0893 -0.2560
 3224SOL    HW1 9728   1.600   1.420   1.325  0.8794 -1.8043 -1.0920
 3224SOL    HW2 9729   1.491   1.324   1.369 -1.2613  1.5630  1.4292
 3225SOL     OW 9730   2.939   4.614   1.663 -0.2062 -0.4100 -0.2316
 3225SOL    HW1 9731   3.027   4.648   1.681 -0.1662  0.0021 -1.1378
 3225SOL    HW2 9732   2.881   4.673   1.710 -0.0446 -0.0301 -0.4955
 3226SOL     OW 9733   1.071   3.326   3.237  0.0435 -0.5465  0.5019
 3226SOL    HW1 9734   1.108   3.247   3.199 -0.0002 -0.2280 -0.2182
 3226SOL    HW2 9735   1.049   3.302   3.327  1.6686 -0.8488  0.8532
 3227SOL     OW 9736   4.346   3.093   2.097  0.3380  0.3370 -0.2777
 3227SOL    HW1 9737   4.266   3.105   2.046 -0.0963  1.5294  0.6466
 3227SOL    HW2 9738   4.384   3.181   2.104  1.5012 -0.1430 -0.3236
 3228SOL     OW 9739   1.999   1.111   0.032 -0.4974 -0.2240 -0.3785
 3228SOL    HW1 9740   1.905   1.096   0.038 -0.7526  0.3823 -2.2900
 3228SOL    HW2 9741   2.015   1.129  -0.060  1.4088  0.3076  0.0075
 3229SOL     OW 9742   0.731   0.894   4.429 -0.2059 -0.0565  0.8812
 3229SOL    HW1 9743   0.822   0.866   4.438 -0.0971 -1.4250 -2.8967
 3229SOL    HW2 9744   0.682   0.836   4.487  1.1141 -0.6910  1.3925
 3230SOL     OW 9745   1.839   2.046   3.160  0.0243  0.2410 -0.3562
 3230SOL    HW1 9746   1.893   2.124   3.148 -0.6314  0.6588 -0.6505
 3230SOL    HW2 9747   1.902   1.975   3.173  0.6188  0.9919  1.0640
 3231SOL     OW 9748   4.232   2.074   2.111  0.8518 -0.4531  0.2997
 3231SOL    HW1 9749   4.226   2.164   2.145  2.0856 -1.2587  2.9211
 3231SOL    HW2 9750   4.149   2.061   2.065  0.1150  1.6262  0.8844
 3232SOL     OW 9751   2.617   2.970   0.420 -0.0059 -0.3552  0.1866
 3232SOL    HW1 9752   2.647   3.051   0.379  1.5000 -1.3309 -0.7416
 3232SOL    HW2 9753   2.663   2.968   0.504 -0.7668  0.1819  0.6290
 3233SOL     OW 9754   4.528   3.112   2.698  0.3292 -0.0569  0.0006
 3233SOL    HW1 9755   4.595   3.074   2.755 -2.7869 -0.7542  3.6004
 3233SOL    HW2 9756   4.506   3.196   2.740 -2.0445 -0.5688 -0.1020
 3234SOL     OW 9757   2.858   2.554   4.206  0.0901  0.0729 -0.2375
 3234SOL    HW1 9758   2.808   2.488   4.254  1.5217 -1.2650 -0.5318
 3234SOL    HW2 9759   2.840   2.535   4.114  3.1575 -2.2267 -0.5143
 3235SOL     OW 9760   3.089   0.304   2.439  0.1104 -0.7692  0.1287
 3235SOL    HW1 9761   3.003   0.305   2.481  0.0252 -1.9913  0.0048
 3235SOL    HW2 9762   3.070   0.308   2.345  0.2512  0.3733  0.1326
 3236SOL     OW 9763   1.739   4.597   0.307 -0.0839 -0.2571  0.4720
 3236SOL    HW1 9764   1.686   4.564   0.380 -1.0664 -1.6423 -0.8141
 3236SOL    HW2 9765   1.689   4.574   0.229  1.2719  0.5912 -0.6857
 3237SOL     OW 9766   1.079   2.026   2.611 -0.3642  0.3134 -0.0847
 3237SOL    HW1 9767   1.022   2.077   2.669 -1.3087  0.8458 -1.4243
 3237SOL    HW2 9768   1.046   2.045   2.523  0.5040 -1.1167 -0.7465
 3238SOL     OW 9769   1.319   3.532   1.669 -0.0665  0.0717  0.4778
 3238SOL    HW1 9770   1.266   3.470   1.719 -1.3669  1.2333  0.6126
 3238SOL    HW2 9771   1.262   3.609   1.659  1.4515  1.2061  0.2510
 3239SOL     OW 9772   3.860   3.530   4.824 -0.1450 -0.2631  0.0558
 3239SOL    HW1 9773   3.877   3.521   4.730  2.6305  2.2032  0.1783
 3239SOL    HW2 9774   3.912   3.462   4.865  1.0503  0.5458 -0.0874
 3240SOL     OW 9775   1.154   1.534   4.902 -0.2602  0.1942 -0.2494
 3240SOL    HW1 9776   1.071   1.492   4.923 -0.8987  0.3444 -2.2273
 3240SOL    HW2 9777   1.195   1.552   4.987 -2.4142  0.4624  0.7818
 3241SOL     OW 9778   1.539   2.855   3.545 -0.3330 -0.2274  0.0025
 3241SOL    HW1 9779   1.628   2.819   3.537 -1.3789 -3.1242  0.0995
 3241SOL    HW2 9780   1.520   2.893   3.460  0.7141 -0.2862 -0.2655
 3242SOL     OW 9781   2.496   1.192   4.404 -0.4254 -0.2136  0.9022
 3242SOL    HW1 9782   2.529   1.185   4.494 -2.7830  1.9479  2.0753
 3242SOL    HW2 9783   2.405   1.162   4.409 -1.4671  2.4204 -0.0642
 3243SOL     OW 9784   1.752   1.765   0.613 -0.5284 -0.0759  0.0330
 3243SOL    HW1 9785   1.680   1.748   0.674 -0.4386  2.6840  1.0618
 3243SOL    HW2 9786   1.713   1.753   0.526 -1.8119 -0.0960  0.5854
 3244SOL     OW 9787   1.768   1.279   2.717 -0.6203  0.3399  1.0357
 3244SOL    HW1 9788   1.721   1.259   2.637 -0.4957  1.1893  0.7443
 3244SOL    HW2 9789   1.859   1.289   2.690 -0.6817  1.3420  1.1485
 3245SOL     OW 9790   2.526   2.505   4.622 -0.2302  0.3452 -0.2519
 3245SOL    HW1 9791   2.471   2.426   4.629  0.3926 -0.0447  0.5146
 3245SOL    HW2 9792   2.573   2.508   4.706  1.1632  0.4782 -1.0012
 3246SOL     OW 9793   2.592   0.309   1.142  0.0591 -0.3487 -0.3278
 3246SOL    HW1 9794   2.671   0.256   1.153  0.8140  0.9317  0.8206
 3246SOL    HW2 9795   2.615   0.374   1.075  0.9913  1.6646  1.7866
 3247SOL     OW 9796   4.816   0.203   2.490 -0.0448 -0.4327 -0.1816
 3247SOL    HW1 9797   4.873   0.154   2.431 -0.7637 -0.7464 -0.6292
 3247SOL    HW2 9798   4.773   0.137   2.543 -1.0256 -0.3021 -0.7918
 3248SOL     OW 9799   0.469   3.353   2.352 -0.0054 -0.4577  0.3341
 3248SOL    HW1 9800   0.387   3.397   2.376 -0.3840 -0.3795 -1.0228
 3248SOL    HW2 9801   0.449   3.309   2.270  1.2913 -0.5291  0.0429
 3249SOL     OW 9802   3.003   4.274   3.507  0.1034 -0.1515  0.1689
 3249SOL    HW1 9803   2.960   4.189   3.495  0.3093  0.0140 -2.2797
 3249SOL    HW2 9804   2.938   4.327   3.552 -0.5344 -1.2292  0.5625
 3250SOL     OW 9805   2.101   0.679   1.373 -0.2753 -0.3290 -0.5502
 3250SOL    HW1 9806   2.140   0.681   1.285  2.0248  0.4437  0.3981
 3250SOL    HW2 9807   2.052   0.761   1.379 -0.7535 -0.5585 -1.2295
 3251SOL     OW 9808   1.377   4.449   3.509  0.4380  0.6125 -0.0127
 3251SOL    HW1 9809   1.344   4.426   3.422  0.4190  1.0142 -0.1147
 3251SOL    HW2 9810   1.334   4.532   3.530  0.5422  0.5821  0.3239
 3252SOL     OW 9811   2.264   3.257   0.794  0.2461  0.4414 -0.0528
 3252SOL    HW1 9812   2.255   3.353   0.792  0.3656  0.4532 -0.0079
 3252SOL    HW2 9813   2.251   3.233   0.885 -2.2677  0.1703 -0.4208
 3253SOL     OW 9814   0.147   3.474   0.261 -0.7434  0.4495  0.0346
 3253SOL    HW1 9815   0.162   3.547   0.202  0.2326  0.0739 -0.2060
 3253SOL    HW2 9816   0.194   3.498   0.342 -0.2006 -0.0017 -0.1339
 3254SOL     OW 9817   3.838   1.027   4.090  0.1179 -0.4323 -0.0571
 3254SOL    HW1 9818   3.923   0.984   4.099  0.3733 -0.0081 -0.4596
 3254SOL    HW2 9819   3.814   1.051   4.179  1.1354  0.8273 -0.1004
 3255SOL     OW 9820   4.822   0.712   0.272 -0.7887 -0.2841  0.1976
 3255SOL    HW1 9821   4.783   0.784   0.322 -0.8578  0.2881 -0.6692
 3255SOL    HW2 9822   4.795   0.728   0.182  1.0053 -0.1552 -0.3579
 3256SOL     OW 9823   3.346   0.722   4.218 -0.1455  0.5434 -0.2203
 3256SOL    HW1 9824   3.433   0.753   4.195  0.2182 -0.4343 -0.2000
 3256SOL    HW2 9825   3.304   0.703   4.133 -1.2613  3.3306 -0.3883
 3257SOL     OW 9826   0.993   1.463   0.956  0.0509  0.1082 -0.4174
 3257SOL    HW1 9827   0.973   1.395   1.020 -0.4249 -0.1297 -0.8093
 3257SOL    HW2 9828   0.950   1.541   0.989  0.6726  0.2502  0.0801
 3258SOL     OW 9829   3.512   1.327   3.095  0.5598  0.1575  0.3295
 3258SOL    HW1 9830   3.503   1.348   3.187  1.8959 -0.7370  0.7042
 3258SOL    HW2 9831   3.542   1.408   3.054 -1.0316  0.8427  0.4708
 3259SOL     OW 9832   1.322   3.310   1.498 -0.7595 -0.0086 -0.1571
 3259SOL    HW1 9833   1.258   3.378   1.482 -0.5253  1.3981  3.7108
 3259SOL    HW2 9834   1.400   3.357   1.528  0.8375 -1.8242 -1.2290
 3260SOL     OW 9835   0.095   0.032   2.348 -0.1653  0.1434  0.3238
 3260SOL    HW1 9836   0.033   0.025   2.275 -0.8612  2.4568  0.6039
 3260SOL    HW2 9837   0.059  -0.025   2.416 -1.0355  0.0864 -0.1639
 3261SOL     OW 9838   4.444   1.002   4.536  0.0136 -0.0401 -0.1922
 3261SOL    HW1 9839   4.536   1.027   4.546  0.0856 -0.2843 -0.2322
 3261SOL    HW2 9840   4.430   0.935   4.603 -0.1229 -0.0345 -0.2151
 3262SOL     OW 9841   0.412   2.150   3.550 -0.1378  0.2759  0.0243
 3262SOL    HW1 9842   0.446   2.148   3.461 -0.6700  0.8093 -0.1923
 3262SOL    HW2 9843   0.381   2.239   3.563 -3.3962 -0.6250 -0.5492
 3263SOL     OW 9844   0.491   0.479   1.568  0.4356 -0.7690  1.1893
 3263SOL    HW1 9845   0.539   0.474   1.486 -1.4962 -0.5747 -0.0141
 3263SOL    HW2 9846   0.426   0.548   1.554 -1.1695 -2.0073  2.1763
 3264SOL     OW 9847   4.075   2.758   2.582 -0.2109 -0.5651 -0.4228
 3264SOL    HW1 9848   4.098   2.791   2.495  1.2898 -0.9566 -0.2111
 3264SOL    HW2 9849   4.042   2.834   2.629  0.5658  0.0263 -0.8122
 3265SOL     OW 9850   0.367   4.077   3.915 -0.6376  0.8075  0.1356
 3265SOL    HW1 9851   0.461   4.069   3.931 -0.3803  1.4252 -0.9037
 3265SOL    HW2 9852   0.346   4.004   3.857 -0.8568  0.5106  0.5885
 3266SOL     OW 9853   1.930   2.989   4.995 -0.0800  0.2562  0.3340
 3266SOL    HW1 9854   2.009   3.041   4.994  0.9486 -1.1778  1.6030
 3266SOL    HW2 9855   1.936   2.933   4.917 -0.3689  0.8620 -0.1274
 3267SOL     OW 9856   2.344   4.346   3.538  0.2088  0.0112  0.4414
 3267SOL    HW1 9857   2.267   4.304   3.501  0.1906  0.7938 -0.4568
 3267SOL    HW2 9858   2.318   4.372   3.626  0.3322 -2.0970  1.1497
 3268SOL     OW 9859   2.148   1.886   2.670  0.4319 -0.0919  0.1395
 3268SOL    HW1 9860   2.147   1.829   2.593  0.8561  0.0848 -0.0034
 3268SOL    HW2 9861   2.162   1.974   2.634 -1.5003  0.3029  0.2462
 3269SOL     OW 9862   3.301   1.136   0.212 -0.6289 -0.1962  0.0030
 3269SOL    HW1 9863   3.325   1.228   0.200  2.9666 -1.0905 -0.8776
 3269SOL    HW2 9864   3.292   1.126   0.307 -0.9192  1.0264  0.1209
 3270SOL     OW 9865   3.601   3.786   0.181 -0.2486 -0.1198  0.1071
 3270SOL    HW1 9866   3.577   3.868   0.138 -2.0058 -0.6384  0.0083
 3270SOL    HW2 9867   3.601   3.722   0.111 -0.6939 -0.5199  0.4626
 3271SOL     OW 9868   0.023   4.543   4.813  0.0328  0.4521  0.5099
 3271SOL    HW1 9869   0.041   4.557   4.906  0.0844 -0.0069  0.5687
 3271SOL    HW2 9870  -0.008   4.628   4.782  1.5162  1.0388  0.5870
 3272SOL     OW 9871   2.885   2.807   2.241  0.5460  0.0182  0.5191
 3272SOL    HW1 9872   2.897   2.776   2.151 -0.4895  0.7961  0.0951
 3272SOL    HW2 9873   2.811   2.755   2.274 -0.1004  0.8198  0.3717
 3273SOL     OW 9874   0.091   3.242   0.076 -0.2752 -0.3759  0.4584
 3273SOL    HW1 9875   0.117   3.155   0.105 -0.5688  0.2275  2.7163
 3273SOL    HW2 9876   0.105   3.298   0.152  4.5666  2.6386 -2.1401
 3274SOL     OW 9877   0.482   1.066   2.077 -0.3716 -0.6582  0.7772
 3274SOL    HW1 9878   0.434   1.011   2.138  0.4485  0.4513  2.4950
 3274SOL    HW2 9879   0.477   1.154   2.114  2.0219 -0.3221  0.4642
 3275SOL     OW 9880   4.420   2.572   0.345 -0.7067 -0.5569  0.1238
 3275SOL    HW1 9881   4.428   2.520   0.425 -0.7009 -2.2703 -0.9238
 3275SOL    HW2 9882   4.448   2.512   0.275 -0.1582  1.0642 -1.1131
 3276SOL     OW 9883   3.490   3.395   4.326  0.7895 -0.3249 -0.0095
 3276SOL    HW1 9884   3.440   3.319   4.355  1.1638 -0.6022 -0.0815
 3276SOL    HW2 9885   3.582   3.366   4.330  0.9959  0.3813  0.7747
 3277SOL     OW 9886   1.312   2.798   4.074 -0.3467 -0.2567 -0.4335
 3277SOL    HW1 9887   1.265   2.737   4.016 -0.8873 -0.2517 -0.0088
 3277SOL    HW2 9888   1.376   2.744   4.119 -1.6329 -0.7888  0.8510
 3278SOL     OW 9889   0.487   4.654   4.560  0.2196 -0.0553 -0.7486
 3278SOL    HW1 9890   0.542   4.667   4.484 -1.6063  2.3022 -1.7950
 3278SOL    HW2 9891   0.443   4.570   4.544  2.1595 -1.1237 -0.6936
 3279SOL     OW 9892   0.994   3.997   4.381 -0.1773 -0.1500  0.1429
 3279SOL    HW1 9893   1.002   4.093   4.380 -0.1229 -0.1565 -0.4955
 3279SOL    HW2 9894   0.924   3.979   4.318 -0.8246 -0.4826  0.9285
 3280SOL     OW 9895   3.772   2.793   0.624 -0.4220 -0.7757 -0.1912
 3280SOL    HW1 9896   3.727   2.838   0.695 -0.4376  1.6301 -1.5919
 3280SOL    HW2 9897   3.702   2.763   0.566 -0.3512  0.1743 -0.7914
 3281SOL     OW 9898   4.949   2.056   2.440  0.0833 -0.3806  0.0581
 3281SOL    HW1 9899   4.946   2.043   2.534 -0.1827  1.3073  0.3236
 3281SOL    HW2 9900   4.895   2.134   2.425  0.0514 -0.6689 -1.4961
 3282SOL     OW 9901   1.708   3.581   3.531 -0.2638 -0.0540  0.3962
 3282SOL    HW1 9902   1.748   3.496   3.514  1.0645  0.5689  0.3135
 3282SOL    HW2 9903   1.758   3.617   3.604  0.8728  1.6995 -1.1410
 3283SOL     OW 9904   3.765   4.979   2.236  0.5211  0.3930 -0.3006
 3283SOL    HW1 9905   3.859   4.963   2.227  0.3879 -1.1026  0.5849
 3283SOL    HW2 9906   3.737   5.007   2.149  1.7851  0.8815 -0.5765
 3284SOL     OW 9907   1.814   3.957   3.808  0.1731  0.4332 -0.3374
 3284SOL    HW1 9908   1.783   4.003   3.731 -0.2297  2.5228  0.9869
 3284SOL    HW2 9909   1.744   3.968   3.873 -0.0574 -2.3109  0.0078
 3285SOL     OW 9910   2.156   1.433   4.717 -0.0076  0.2879 -0.4081
 3285SOL    HW1 9911   2.153   1.495   4.791  0.1736  0.8893 -0.8971
 3285SOL    HW2 9912   2.244   1.397   4.720 -0.3270 -0.4752  0.2919
 3286SOL     OW 9913   1.110   2.610   0.117  0.6294 -0.3624  0.3372
 3286SOL    HW1 9914   1.140   2.695   0.084 -2.7810  1.9887  2.6110
 3286SOL    HW2 9915   1.189   2.557   0.124  2.7213  2.0508 -2.5929
 3287SOL     OW 9916   0.150   4.651   0.355  0.5082 -0.0190 -0.0924
 3287SOL    HW1 9917   0.202   4.586   0.402 -0.7747 -0.5000  0.7182
 3287SOL    HW2 9918   0.134   4.719   0.420 -2.5653 -1.3935  0.7695
 3288SOL     OW 9919   1.551   1.721   1.714 -0.5460  0.1573 -0.0653
 3288SOL    HW1 9920   1.617   1.753   1.776 -0.2731 -1.6977  0.6818
 3288SOL    HW2 9921   1.595   1.720   1.629 -0.3476  1.0595  0.0243
 3289SOL     OW 9922   1.623   3.288   3.933 -0.4369  0.1454 -0.2141
 3289SOL    HW1 9923   1.528   3.289   3.945 -0.1724 -0.5110  2.4936
 3289SOL    HW2 9924   1.640   3.208   3.884 -1.1628 -0.6118  0.7292
 3290SOL     OW 9925   4.525   4.492   2.904 -0.1359 -0.2491 -0.1974
 3290SOL    HW1 9926   4.478   4.566   2.868 -1.6771 -0.9652  0.2500
 3290SOL    HW2 9927   4.611   4.494   2.862  0.4837  2.7154  0.9961
 3291SOL     OW 9928   2.786   1.554   0.156 -0.6458  0.6036  0.1402
 3291SOL    HW1 9929   2.817   1.573   0.245 -1.5802 -3.0469  1.4391
 3291SOL    HW2 9930   2.846   1.602   0.099  0.5422  2.3913  2.6849
 3292SOL     OW 9931   2.372   2.424   0.278  0.4374 -0.1288  0.1445
 3292SOL    HW1 9932   2.288   2.445   0.238  0.5973 -0.2954 -0.2851
 3292SOL    HW2 9933   2.350   2.392   0.365  0.2230  2.8957  1.3254
 3293SOL     OW 9934   2.740   4.777   0.143  0.1508 -0.0163 -0.0406
 3293SOL    HW1 9935   2.818   4.821   0.177  1.2630 -1.4890 -0.5507
 3293SOL    HW2 9936   2.774   4.707   0.086 -1.5870  0.9386 -2.4437
 3294SOL     OW 9937   4.513   4.800   0.296 -0.2507  0.3014 -0.0249
 3294SOL    HW1 9938   4.485   4.713   0.269  0.7899 -0.2862  0.7069
 3294SOL    HW2 9939   4.602   4.809   0.259  0.2337  0.4467  1.1370
 3295SOL     OW 9940   0.968   0.573   0.482  0.2554 -0.4927 -0.1831
 3295SOL    HW1 9941   0.881   0.613   0.479 -0.9694 -2.8586  0.6767
 3295SOL    HW2 9942   1.022   0.636   0.531 -1.1080  0.7801 -0.2474
 3296SOL     OW 9943   0.120   2.205   4.718 -0.0854 -0.3054 -0.2122
 3296SOL    HW1 9944   0.119   2.290   4.674 -1.1964 -0.3069 -0.2248
 3296SOL    HW2 9945   0.177   2.151   4.664  0.5810  0.4154 -0.2400
 3297SOL     OW 9946   4.644   4.683   0.914  0.3797 -0.1308  0.7746
 3297SOL    HW1 9947   4.650   4.612   0.851  0.1222 -0.7346  1.4125
 3297SOL    HW2 9948   4.711   4.663   0.979  2.7197  2.0513 -0.7869
 3298SOL     OW 9949   4.395   0.661   4.811 -0.2431 -0.3868 -0.0153
 3298SOL    HW1 9950   4.370   0.606   4.885 -0.5231  0.2401  0.3672
 3298SOL    HW2 9951   4.312   0.687   4.771 -0.1694  0.5691  0.4202
 3299SOL     OW 9952   1.617   3.862   0.743 -0.5492 -0.5666 -0.1311
 3299SOL    HW1 9953   1.575   3.947   0.756 -0.0253 -0.3602  0.2490
 3299SOL    HW2 9954   1.550   3.798   0.766 -0.6021 -0.2405  0.6498
 3300SOL     OW 9955   1.914   2.411   2.282 -0.2780  0.4383  0.1136
 3300SOL    HW1 9956   1.872   2.331   2.313 -0.1558  0.0290 -0.7639
 3300SOL    HW2 9957   1.890   2.477   2.347 -1.6225  0.0292  0.0530
 3301SOL     OW 9958   3.197   0.479   1.983  0.7516  0.4697  0.3405
 3301SOL    HW1 9959   3.223   0.537   2.055  0.0004  1.9989 -0.5628
 3301SOL    HW2 9960   3.232   0.522   1.905 -0.5318  0.1498 -0.4359
 3302SOL     OW 9961   1.200   3.322   4.223  0.4719  0.6527 -0.3464
 3302SOL    HW1 9962   1.210   3.354   4.133  1.6150  2.4618  0.3615
 3302SOL    HW2 9963   1.290   3.320   4.257  0.1041 -0.4808  0.6197
 3303SOL     OW 9964   0.383   1.864   1.968 -0.2944 -0.6216  0.0334
 3303SOL    HW1 9965   0.294   1.890   1.946  0.0411 -0.0753 -0.7261
 3303SOL    HW2 9966   0.373   1.782   2.016 -1.2835  0.1001  1.1339
 3304SOL     OW 9967   4.699   2.179   4.410 -0.8570 -0.0881  0.1097
 3304SOL    HW1 9968   4.748   2.103   4.443 -1.4115 -1.1173 -1.3305
 3304SOL    HW2 9969   4.748   2.207   4.333 -1.2021  0.4114  0.0684
 3305SOL     OW 9970   4.747   1.456   0.155 -0.0523 -0.2429 -0.1523
 3305SOL    HW1 9971   4.688   1.513   0.104 -0.1053 -1.1366 -1.1376
 3305SOL    HW2 9972   4.835   1.486   0.132 -0.0909 -0.2143 -0.2678
 3306SOL     OW 9973   3.286   3.971   2.115  0.3943  0.2294  0.2744
 3306SOL    HW1 9974   3.348   3.898   2.107 -0.6139 -0.5704 -0.5117
 3306SOL    HW2 9975   3.210   3.933   2.159  0.7161  1.3912  1.9309
 3307SOL     OW 9976   2.116   3.427   1.933 -0.4606 -0.0850  0.4157
 3307SOL    HW1 9977   2.200   3.451   1.971  0.1711 -0.3575 -0.7612
 3307SOL    HW2 9978   2.064   3.507   1.935 -0.2079  0.0686  1.2075
 3308SOL     OW 9979   3.490   1.281   4.228  0.1937  0.6883  0.1016
 3308SOL    HW1 9980   3.488   1.221   4.153  0.9582 -1.0401  1.3862
 3308SOL    HW2 9981   3.471   1.225   4.303  1.2014  2.0171  1.4028
 3309SOL     OW 9982   4.657   0.967   0.882 -0.0558 -0.0188  0.3499
 3309SOL    HW1 9983   4.737   1.004   0.845  0.4866  0.1216  1.6180
 3309SOL    HW2 9984   4.588   1.029   0.856  0.4889  0.6746  0.5494
 3310SOL     OW 9985   1.835   4.570   2.974 -0.0563 -0.0863 -0.3553
 3310SOL    HW1 9986   1.828   4.637   2.906  2.3060 -0.4996 -1.1162
 3310SOL    HW2 9987   1.821   4.617   3.056 -2.1931  0.5790 -1.0512
 3311SOL     OW 9988   1.513   1.569   4.772  0.1138 -0.0460 -0.1312
 3311SOL    HW1 9989   1.537   1.603   4.858  1.2565  1.0375 -0.8448
 3311SOL    HW2 9990   1.442   1.507   4.789  0.5281 -0.0767  1.6131
 3312SOL     OW 9991   3.452   3.542   0.526  0.5098  0.5262  0.0785
 3312SOL    HW1 9992   3.412   3.509   0.445  0.4017  2.0173 -0.5021
 3312SOL    HW2 9993   3.416   3.487   0.595 -0.1187 -0.1648 -0.7803
 3313SOL     OW 9994   3.477   0.878   0.555 -0.5871 -0.4308  0.5627
 3313SOL    HW1 9995   3.401   0.934   0.538 -0.3284  0.4222  2.0071
 3313SOL    HW2 9996   3.481   0.872   0.650  1.8242  0.4986  0.5789
 3314SOL     OW 9997   4.307   2.774   2.123 -0.2281 -0.1052  0.1084
 3314SOL    HW1 9998   4.400   2.755   2.135  0.1927 -1.0478 -3.4247
 3314SOL    HW2 9999   4.306   2.850   2.065 -1.6057 -0.8834 -0.9500
 3315SOL     OW10000   3.998   2.878   4.262  0.0002 -0.6978 -0.1411
 3315SOL    HW110001   4.039   2.920   4.187  0.7024 -0.5349  0.3216
 3315SOL    HW210002   3.975   2.791   4.231  0.6208 -0.7641 -0.4468
 3316SOL     OW10003   3.062   4.656   3.855 -0.7165  0.0775 -0.3540
 3316SOL    HW110004   3.024   4.629   3.939  0.2248 -0.6238 -0.1223
 3316SOL    HW210005   3.144   4.606   3.850 -0.5592  0.4311 -1.5004
 3317SOL     OW10006   4.895   1.996   3.719  1.0424 -0.4796 -0.7504
 3317SOL    HW110007   4.840   1.994   3.640 -0.3608  0.7433  0.1456
 3317SOL    HW210008   4.939   2.080   3.715  0.5137 -0.1591  0.0496
 3318SOL     OW10009   2.016   2.368   4.353 -0.2805 -0.4877  0.4968
 3318SOL    HW110010   1.979   2.380   4.265  0.1311 -0.7860  0.2790
 3318SOL    HW210011   1.992   2.278   4.376  2.0384 -1.4474 -0.5102
 3319SOL     OW10012   3.764   3.939   4.424 -0.4026  0.5945  0.2287
 3319SOL    HW110013   3.759   3.847   4.398  1.0710  0.2725  0.9575
 3319SOL    HW210014   3.827   3.940   4.497 -1.1191  2.0449  0.8733
 3320SOL     OW10015   3.694   4.797   1.461 -0.5977  0.1273  0.2305
 3320SOL    HW110016   3.624   4.748   1.503 -0.0261  0.5811  1.7848
 3320SOL    HW210017   3.773   4.770   1.507 -0.0330  1.1616 -0.0897
 3321SOL     OW10018   4.780   4.339   4.877  0.8629 -0.4962  0.4092
 3321SOL    HW110019   4.839   4.278   4.833 -0.1528 -0.1708 -1.5002
 3321SOL    HW210020   4.808   4.426   4.847  0.4050 -0.2337  0.7264
 3322SOL     OW10021   3.473   4.951   3.813  0.6803 -0.4132  0.4611
 3322SOL    HW110022   3.437   4.890   3.877  1.3392 -0.0885  1.1594
 3322SOL    HW210023   3.464   4.905   3.729 -1.3378 -0.3297  0.5860
 3323SOL     OW10024   4.496   0.841   1.538 -0.2973 -0.3253  0.8984
 3323SOL    HW110025   4.439   0.789   1.595  0.4225 -1.6164  0.5027
 3323SOL    HW210026   4.446   0.919   1.518 -2.5457 -2.0267 -0.5869
 3324SOL     OW10027   2.402   3.454   4.823 -0.0283 -0.1319  0.2609
 3324SOL    HW110028   2.313   3.422   4.806  0.4874 -1.7111  0.3959
 3324SOL    HW210029   2.436   3.479   4.738 -0.1732 -0.7020  0.0314
 3325SOL     OW10030   0.206   1.566   2.013 -0.1537 -0.5566  0.1604
 3325SOL    HW110031   0.113   1.566   1.993  0.0333  1.0559 -0.8354
 3325SOL    HW210032   0.249   1.566   1.928  0.8710 -3.7075  0.5248
 3326SOL     OW10033   3.045   1.986   3.099  0.0688 -0.8208 -0.4730
 3326SOL    HW110034   3.013   2.030   3.020 -0.0170 -0.4987 -0.2590
 3326SOL    HW210035   2.967   1.947   3.138 -0.0363 -0.2335 -0.0775
 3327SOL     OW10036   3.888   1.286   4.435  0.3413 -0.1210 -0.1702
 3327SOL    HW110037   3.851   1.363   4.394  1.7292  0.6284 -0.0691
 3327SOL    HW210038   3.944   1.320   4.505  0.3028 -1.2510  0.4372
 3328SOL     OW10039   2.525   1.988   0.570  0.1068  0.3144  0.2239
 3328SOL    HW110040   2.442   2.003   0.525  0.1084 -0.2924  0.0045
 3328SOL    HW210041   2.533   2.061   0.631 -0.0693  0.9521 -0.5118
 3329SOL     OW10042   4.954   3.088   2.630 -0.3573 -0.6070 -0.0668
 3329SOL    HW110043   5.019   3.046   2.574  0.5785  1.0529 -0.2897
 3329SOL    HW210044   4.869   3.065   2.591  0.0532 -2.7233  0.1771
 3330SOL     OW10045   3.320   3.103   3.214 -0.3195 -0.1341  0.0081
 3330SOL    HW110046   3.338   3.073   3.125 -0.3033 -0.7633  0.2156
 3330SOL    HW210047   3.396   3.072   3.265 -1.4948 -2.0450  0.7292
 3331SOL     OW10048   2.268   4.449   4.799  0.0333 -0.4449 -0.0011
 3331SOL    HW110049   2.200   4.517   4.795 -0.0708 -0.6128 -1.8501
 3331SOL    HW210050   2.221   4.371   4.827 -0.0765 -0.0416  0.9786
 3332SOL     OW10051   1.280   3.971   0.500 -0.7100  0.5241 -0.3852
 3332SOL    HW110052   1.284   3.910   0.574  1.3518  1.7769  0.6315
 3332SOL    HW210053   1.221   4.040   0.530 -0.6083  0.5675 -0.2829
 3333SOL     OW10054   0.860   1.954   3.895  0.3645  0.2039  0.3157
 3333SOL    HW110055   0.950   1.964   3.864  0.4939 -0.5993  0.4040
 3333SOL    HW210056   0.832   1.869   3.860 -0.3901  0.4794  0.2198
 3334SOL     OW10057   2.135   1.169   0.882  0.1949  0.1395  0.1488
 3334SOL    HW110058   2.217   1.208   0.912  0.8282 -0.9250 -0.1242
 3334SOL    HW210059   2.067   1.229   0.911  1.0840  1.1083  0.2721
 3335SOL     OW10060   2.211   0.397   1.368  0.6784  0.0864 -1.1187
 3335SOL    HW110061   2.166   0.481   1.377  1.5031  0.6134 -1.7391
 3335SOL    HW210062   2.304   0.420   1.367  1.0390 -1.0605  1.0338
 3336SOL     OW10063   3.341   0.476   4.340 -0.4044  0.1819  0.1397
 3336SOL    HW110064   3.431   0.446   4.342  0.0897  1.6143  1.9064
 3336SOL    HW210065   3.340   0.542   4.270  0.4341  1.5466  1.3712
 3337SOL     OW10066   2.132   1.871   1.579 -0.3803 -0.1057  0.5711
 3337SOL    HW110067   2.088   1.954   1.563  0.7523  0.2449 -1.0194
 3337SOL    HW210068   2.224   1.895   1.592  0.2521 -1.1652 -1.4526
 3338SOL     OW10069   3.357   3.149   4.404  0.0513  0.1456 -0.1353
 3338SOL    HW110070   3.313   3.065   4.389 -0.9025  0.7550 -0.8765
 3338SOL    HW210071   3.424   3.129   4.469  0.0156 -1.2492 -0.4820
 3339SOL     OW10072   2.224   1.267   0.560  0.7143  0.4915 -0.0273
 3339SOL    HW110073   2.235   1.357   0.593  1.0135  0.3986  0.1304
 3339SOL    HW210074   2.291   1.259   0.491  1.1927  0.1482  0.4673
 3340SOL     OW10075   0.739   4.616   3.690 -0.3490  0.4631 -0.1005
 3340SOL    HW110076   0.804   4.613   3.620 -0.6165  0.5879 -0.3567
 3340SOL    HW210077   0.707   4.707   3.690 -2.1308 -0.0916 -1.4763
 3341SOL     OW10078   2.612   3.790   4.353 -0.2787  0.2921 -0.2541
 3341SOL    HW110079   2.649   3.720   4.300 -0.1762 -0.1523  0.3849
 3341SOL    HW210080   2.518   3.772   4.355 -0.3126  0.4434 -0.4764
 3342SOL     OW10081   0.481   2.725   1.919  0.0368  0.1861  0.4711
 3342SOL    HW110082   0.392   2.727   1.884  0.1998  1.8449  0.0230
 3342SOL    HW210083   0.480   2.791   1.989  0.5229 -0.8876  1.5094
 3343SOL     OW10084   2.915   4.867   1.284 -0.2098 -0.6091 -0.1229
 3343SOL    HW110085   2.871   4.784   1.305 -0.9911  0.0236  0.8800
 3343SOL    HW210086   2.957   4.893   1.366  0.7880 -0.4544 -0.6768
 3344SOL     OW10087   1.805   2.899   1.437 -0.3829 -0.2311 -0.3751
 3344SOL    HW110088   1.777   2.815   1.401 -1.6059  0.3605 -0.8408
 3344SOL    HW210089   1.876   2.928   1.380  1.3799 -1.7949  0.8785
 3345SOL     OW10090   3.528   0.193   4.574 -0.5244 -0.4363 -0.2968
 3345SOL    HW110091   3.552   0.210   4.482  0.0439 -0.2486 -0.1161
 3345SOL    HW210092   3.564   0.106   4.592 -1.4787 -0.8928 -0.5396
 3346SOL     OW10093   2.381   1.412   3.932  0.5948  0.0587  0.3937
 3346SOL    HW110094   2.460   1.415   3.985 -0.3896  3.2821  1.9479
 3346SOL    HW210095   2.379   1.497   3.888 -2.1184  0.2215  0.6585
 3347SOL     OW10096   1.281   2.854   2.451  0.3800 -0.6065  0.5684
 3347SOL    HW110097   1.280   2.765   2.416  1.8539 -0.4242  0.0011
 3347SOL    HW210098   1.360   2.858   2.504 -0.5141 -0.1033  1.9130
 3348SOL     OW10099   1.253   1.907   2.368 -0.0680 -0.1249 -0.0057
 3348SOL    HW110100   1.181   1.915   2.432 -1.2134 -0.5292 -1.1994
 3348SOL    HW210101   1.215   1.938   2.286  0.8762 -1.1271 -0.8382
 3349SOL     OW10102   3.824   1.976   3.422  0.0981  0.2093 -0.0425
 3349SOL    HW110103   3.729   1.985   3.428  0.2451  1.2031  1.7521
 3349SOL    HW210104   3.854   2.061   3.388  0.3811  0.1346  0.0193
 3350SOL     OW10105   3.475   4.497   0.406 -0.0492 -0.3576 -0.2668
 3350SOL    HW110106   3.532   4.470   0.334 -0.6149  0.2716 -0.9644
 3350SOL    HW210107   3.398   4.441   0.399 -0.7669  0.6830 -1.0860
 3351SOL     OW10108   0.441   2.095   0.982  0.2806  0.2997 -0.2114
 3351SOL    HW110109   0.466   2.031   1.049 -1.5828 -2.0002 -1.5198
 3351SOL    HW210110   0.448   2.047   0.899 -0.6766  1.9760 -1.3334
 3352SOL     OW10111   0.070   0.675   0.519 -0.1274  0.1837 -1.0246
 3352SOL    HW110112   0.152   0.626   0.521 -0.5694 -0.8260  3.2248
 3352SOL    HW210113   0.002   0.607   0.524 -0.9874  1.0831 -0.0254
 3353SOL     OW10114   3.584   4.294   3.377 -0.0865  0.1159  0.1934
 3353SOL    HW110115   3.636   4.367   3.344 -1.7783  0.4689 -1.9261
 3353SOL    HW210116   3.508   4.334   3.417  0.9673 -0.4090  2.9057
 3354SOL     OW10117   4.355   4.400   4.594  0.4140  0.1891  0.0180
 3354SOL    HW110118   4.433   4.349   4.618  0.8754  0.8520 -0.0414
 3354SOL    HW210119   4.312   4.417   4.677 -0.2645 -1.0911 -0.0407
 3355SOL     OW10120   1.819   4.841   0.249 -0.4965  0.3396 -0.0958
 3355SOL    HW110121   1.884   4.871   0.313  2.0926  0.4187 -2.5697
 3355SOL    HW210122   1.783   4.761   0.288  1.4078  0.0589  1.2310
 3356SOL     OW10123   3.141   3.496   2.956  0.7014  0.0456 -0.7328
 3356SOL    HW110124   3.198   3.534   2.889  1.8519 -0.2075  0.0805
 3356SOL    HW210125   3.144   3.402   2.938  0.4021  0.0481 -0.7942
 3357SOL     OW10126   4.858   0.408   3.772  0.1060 -0.1920 -0.1737
 3357SOL    HW110127   4.855   0.503   3.756 -0.7621 -0.1631  0.0886
 3357SOL    HW210128   4.924   0.375   3.711  1.1668  0.7183  0.4467
 3358SOL     OW10129   4.211   0.929   2.297 -0.4936  0.0953  0.3989
 3358SOL    HW110130   4.249   0.959   2.379 -0.7564  0.0077  0.5544
 3358SOL    HW210131   4.120   0.909   2.318  0.0180 -2.2757  0.6759
 3359SOL     OW10132   2.630   2.745   0.866  0.2013 -0.3287  0.1689
 3359SOL    HW110133   2.653   2.826   0.821 -0.2568 -0.1591  0.2337
 3359SOL    HW210134   2.622   2.769   0.958  0.6406 -0.5709  0.2723
 3360SOL     OW10135   1.286   0.396   4.512  0.1826  0.3730 -0.3429
 3360SOL    HW110136   1.199   0.367   4.484  0.0891  1.7241 -1.5573
 3360SOL    HW210137   1.295   0.484   4.476  3.0849 -0.6732 -2.5231
 3361SOL     OW10138   4.937   1.325   4.792 -0.6482  0.4451 -0.0681
 3361SOL    HW110139   4.844   1.338   4.810 -0.6504  1.1844 -0.5750
 3361SOL    HW210140   4.968   1.410   4.761  0.1420  0.1371 -0.1564
 3362SOL     OW10141   0.169   3.603   2.957  0.2807  0.1977 -0.0033
 3362SOL    HW110142   0.131   3.689   2.970 -0.8422  0.0164 -1.7305
 3362SOL    HW210143   0.262   3.619   2.942  0.1043  1.0947 -0.1546
 3363SOL     OW10144   4.564   4.876   1.959 -0.1607  0.4256 -0.5946
 3363SOL    HW110145   4.542   4.968   1.942 -3.2488 -0.0140  0.3696
 3363SOL    HW210146   4.592   4.875   2.051 -0.2518  0.4013 -0.5664
 3364SOL     OW10147   2.775   2.232   1.124  0.1466 -0.0210  0.3887
 3364SOL    HW110148   2.863   2.216   1.090  0.2034 -0.9597  0.9549
 3364SOL    HW210149   2.746   2.312   1.079  0.5582 -0.7150 -1.1928
 3365SOL     OW10150   2.184   0.707   1.123  0.0818 -0.0272  0.5847
 3365SOL    HW110151   2.177   0.698   1.028 -4.0342 -0.9780  0.8232
 3365SOL    HW210152   2.210   0.798   1.137  0.7273  0.1466 -1.3818
 3366SOL     OW10153   4.629   0.858   2.416  0.0951  0.2103  0.0376
 3366SOL    HW110154   4.613   0.930   2.355 -1.4034  1.3913  1.7173
 3366SOL    HW210155   4.667   0.900   2.493  0.7631 -1.0554  0.4237
 3367SOL     OW10156   0.364   0.556   1.120 -0.5388  0.1893  0.3179
 3367SOL    HW110157   0.278   0.515   1.116 -0.2826 -0.2115 -2.0963
 3367SOL    HW210158   0.425   0.483   1.131 -0.4605  0.4830  2.1925
 3368SOL     OW10159   4.677   2.749   2.593 -0.0115 -0.3641 -0.3514
 3368SOL    HW110160   4.589   2.776   2.621  0.0911 -0.5909  0.1907
 3368SOL    HW210161   4.666   2.658   2.565  0.4456 -1.0978  1.6869
 3369SOL     OW10162   0.234   1.438   3.735  0.2457  0.2815 -0.3777
 3369SOL    HW110163   0.153   1.462   3.781  1.3972 -0.3285  2.1196
 3369SOL    HW210164   0.217   1.350   3.701  0.4160 -0.5777  1.6739
 3370SOL     OW10165   1.327   2.285   4.455  0.2456 -0.2651  0.4981
 3370SOL    HW110166   1.394   2.233   4.411 -0.4201  0.3345 -1.3129
 3370SOL    HW210167   1.354   2.376   4.441 -2.2971  0.1537 -2.7946
 3371SOL     OW10168   0.604   1.340   0.281 -0.3893  0.3988 -0.0535
 3371SOL    HW110169   0.667   1.297   0.339 -1.5308 -1.7075 -0.2572
 3371SOL    HW210170   0.657   1.397   0.226  1.1428 -0.1472  0.7942
 3372SOL     OW10171   2.826   3.516   1.135  0.3357  0.0096  0.2120
 3372SOL    HW110172   2.819   3.483   1.045  0.7033  0.0668  0.1570
 3372SOL    HW210173   2.776   3.455   1.188  1.4721 -0.9856  0.1915
 3373SOL     OW10174   4.852   2.766   0.886  0.3205 -0.0708 -0.2736
 3373SOL    HW110175   4.930   2.741   0.837  0.0417 -0.0992 -0.7088
 3373SOL    HW210176   4.797   2.811   0.822 -0.6746 -1.3704 -0.3642
 3374SOL     OW10177   1.011   2.591   1.073  0.3384  0.0038  0.1009
 3374SOL    HW110178   1.100   2.597   1.037  0.7369 -0.2006  1.0411
 3374SOL    HW210179   0.959   2.650   1.017  0.7444 -0.9633 -1.3566
 3375SOL     OW10180   2.333   4.718   0.374  0.4141 -1.4141 -0.4229
 3375SOL    HW110181   2.389   4.716   0.297 -0.4305  1.2192 -1.2204
 3375SOL    HW210182   2.245   4.732   0.340  0.0605  0.0915  0.9771
 3376SOL     OW10183   2.420   3.906   4.722  0.2429  0.0435  0.1833
 3376SOL    HW110184   2.364   3.877   4.794  0.5665 -0.0959  0.3836
 3376SOL    HW210185   2.370   3.885   4.643  0.8281 -1.9444  0.2686
 3377SOL     OW10186   3.482   2.118   0.530  0.4298 -0.2482 -0.0027
 3377SOL    HW110187   3.542   2.186   0.498  1.0119 -1.2750 -1.1823
 3377SOL    HW210188   3.539   2.058   0.578  0.0163 -0.2336  0.5129
 3378SOL     OW10189   1.078   4.060   2.766 -0.1510  0.7692 -0.5443
 3378SOL    HW110190   1.145   4.041   2.832 -0.7220 -0.3276 -0.2550
 3378SOL    HW210191   1.122   4.047   2.682  1.1335  3.9766 -0.5226
 3379SOL     OW10192   4.132   0.558   2.454 -0.2686 -0.2062  0.1420
 3379SOL    HW110193   4.226   0.568   2.468 -0.5874  1.5460  1.4486
 3379SOL    HW210194   4.122   0.554   2.359  1.0528  0.9251 -0.0797
 3380SOL     OW10195   1.863   4.014   1.801 -0.0179 -0.3603  0.5193
 3380SOL    HW110196   1.847   4.077   1.873 -0.6829 -0.6290  0.6120
 3380SOL    HW210197   1.787   3.956   1.804  1.0303 -1.7449  1.0256
 3381SOL     OW10198   3.177   4.872   3.694 -0.9222  0.0947 -0.3306
 3381SOL    HW110199   3.158   4.814   3.767  1.4547  0.2633  0.5370
 3381SOL    HW210200   3.212   4.814   3.626 -0.1097  0.2896 -0.0906
 3382SOL     OW10201   0.907   1.652   4.928 -0.2814  0.0987 -0.7846
 3382SOL    HW110202   0.898   1.723   4.991  0.3731 -0.6173  0.1337
 3382SOL    HW210203   0.830   1.597   4.943 -0.4336  0.2398 -1.0313
 3383SOL     OW10204   2.912   0.861   4.860 -0.5313 -0.1416  0.0180
 3383SOL    HW110205   2.896   0.903   4.775 -2.9557 -2.9595 -1.0919
 3383SOL    HW210206   2.843   0.894   4.917 -1.3323 -1.1796 -0.3240
 3384SOL     OW10207   4.321   0.601   0.339  0.5401  0.2772  0.5533
 3384SOL    HW110208   4.377   0.542   0.288  0.4034 -0.0533  0.7890
 3384SOL    HW210209   4.382   0.666   0.374  0.7055  0.2190  0.3798
 3385SOL     OW10210   0.889   2.252   1.105  0.5576  0.1733  0.2614
 3385SOL    HW110211   0.984   2.241   1.111  0.5070 -2.4942 -1.8422
 3385SOL    HW210212   0.874   2.275   1.013 -0.8337  1.0045  0.6696
 3386SOL     OW10213   2.778   1.660   4.550  0.1010 -0.0893  0.0446
 3386SOL    HW110214   2.836   1.610   4.609  1.1757 -1.0923 -1.7431
 3386SOL    HW210215   2.720   1.708   4.608 -0.7456 -3.1110  1.9653
 3387SOL     OW10216   1.941   4.185   1.056  0.6837 -0.5897 -0.0784
 3387SOL    HW110217   1.949   4.260   0.996 -0.2147 -1.3246 -1.1571
 3387SOL    HW210218   1.848   4.162   1.053  0.9342 -1.7073  0.2932
 3388SOL     OW10219   1.371   1.921   0.767  0.0362 -0.0153  0.7603
 3388SOL    HW110220   1.301   1.984   0.779  0.5317  0.6927  0.0486
 3388SOL    HW210221   1.452   1.972   0.773  0.4533 -0.5920  0.2931
 3389SOL     OW10222   4.511   4.265   3.691  0.0072  0.0305 -0.6384
 3389SOL    HW110223   4.547   4.177   3.685 -1.5241 -0.5390 -2.6282
 3389SOL    HW210224   4.562   4.316   3.628 -0.1970  0.1603 -0.6985
 3390SOL     OW10225   4.647   4.576   4.614  0.3614 -0.3293 -0.3865
 3390SOL    HW110226   4.677   4.641   4.551  3.0058  0.6978  1.7602
 3390SOL    HW210227   4.643   4.623   4.697  0.5156 -2.4698  0.9086
 3391SOL     OW10228   1.755   0.627   4.169  0.0262 -0.1699  0.0541
 3391SOL    HW110229   1.834   0.579   4.192  1.0645  1.1058 -0.6951
 3391SOL    HW210230   1.700   0.623   4.247  0.4607 -1.7440  0.3156
 3392SOL     OW10231   4.048   3.447   4.583 -0.4212  0.2903  0.2692
 3392SOL    HW110232   4.072   3.470   4.493  1.3244 -0.4089  0.4994
 3392SOL    HW210233   4.093   3.513   4.636  1.6058 -1.3667  0.7500
 3393SOL     OW10234   1.726   2.210   2.366 -0.5546 -0.4597  0.3508
 3393SOL    HW110235   1.673   2.254   2.432 -0.6635  0.9334 -0.6196
 3393SOL    HW210236   1.667   2.199   2.291  0.0061 -0.5568 -0.0840
 3394SOL     OW10237   1.630   0.053   1.745 -0.0212  0.5963  0.1945
 3394SOL    HW110238   1.670  -0.003   1.679 -0.1344 -1.8760  2.0926
 3394SOL    HW210239   1.571   0.109   1.695 -0.9806 -1.9428 -1.7664
 3395SOL     OW10240   0.595   2.221   1.709 -0.2287  0.7164  0.3155
 3395SOL    HW110241   0.656   2.167   1.760 -0.4630 -0.4307 -0.5895
 3395SOL    HW210242   0.510   2.180   1.721 -0.1109 -0.3155 -1.9375
 3396SOL     OW10243   2.630   1.134   0.211  0.4052  0.1899 -0.2548
 3396SOL    HW110244   2.719   1.143   0.246  0.3682  0.4429 -0.2243
 3396SOL    HW210245   2.583   1.211   0.244 -0.0345 -0.3268  0.3469
 3397SOL     OW10246   4.464   1.085   1.383 -0.2024  0.0826  0.1521
 3397SOL    HW110247   4.470   1.160   1.442 -0.0490  0.4200 -0.2855
 3397SOL    HW210248   4.481   1.121   1.296  1.8599 -0.7730  0.1399
 3398SOL     OW10249   0.773   1.034   3.220  0.1775  0.0057 -0.5117
 3398SOL    HW110250   0.728   1.012   3.301 -0.2327 -0.2400 -0.8023
 3398SOL    HW210251   0.847   1.089   3.248  0.6798 -0.9633  0.1367
 3399SOL     OW10252   2.377   1.029   2.905 -0.3692 -0.5280  0.1610
 3399SOL    HW110253   2.371   1.053   2.997 -0.0922  2.0503 -0.4291
 3399SOL    HW210254   2.470   1.019   2.888 -0.4098 -0.8522  0.1154
 3400SOL     OW10255   1.302   3.799   4.865  0.2152 -0.6653 -0.1411
 3400SOL    HW110256   1.208   3.815   4.870  0.0150 -2.0675  1.8362
 3400SOL    HW210257   1.339   3.882   4.837 -1.4527  0.4741  0.8515
 3401SOL     OW10258   3.991   3.094   1.825  0.2997  0.0030  0.0957
 3401SOL    HW110259   4.020   3.158   1.760  0.0259  1.0691  0.9936
 3401SOL    HW210260   3.896   3.104   1.827  0.4544  1.7767  2.3966
 3402SOL     OW10261   4.076   0.120   3.916 -0.5656  0.4031  0.9539
 3402SOL    HW110262   4.126   0.080   3.845 -2.5947  0.9288 -0.8869
 3402SOL    HW210263   4.009   0.055   3.938 -1.3881  1.1616  0.7424
 3403SOL     OW10264   3.910   2.255   3.376 -0.4876 -0.3289  0.2746
 3403SOL    HW110265   3.828   2.267   3.424 -1.3467 -1.6027 -0.8085
 3403SOL    HW210266   3.916   2.334   3.321  0.5902  1.2263  2.4561
 3404SOL     OW10267   0.562   3.109   2.372 -0.6060 -0.2286  0.2878
 3404SOL    HW110268   0.649   3.110   2.413  0.4799 -0.7288 -1.8619
 3404SOL    HW210269   0.533   3.200   2.375  0.8754  0.3172 -0.6688
 3405SOL     OW10270   1.525   4.274   4.464  0.5561  0.4572 -0.2515
 3405SOL    HW110271   1.447   4.310   4.506  0.6801 -0.6767  1.0333
 3405SOL    HW210272   1.575   4.351   4.435 -0.0111  1.2525  0.8263
 3406SOL     OW10273   1.829   2.520   3.853  0.3871  0.3592  0.7858
 3406SOL    HW110274   1.789   2.594   3.897 -0.1030  0.3151  0.4176
 3406SOL    HW210275   1.878   2.559   3.780  1.1418  0.4259  1.3109
 3407SOL     OW10276   4.149   2.387   2.803  0.2349 -0.0025  0.3762
 3407SOL    HW110277   4.219   2.430   2.852 -0.7001  1.7800  0.2221
 3407SOL    HW210278   4.099   2.340   2.870  0.4588  0.2926  0.7568
 3408SOL     OW10279   0.595   2.039   3.363 -0.0868 -0.0584  0.1903
 3408SOL    HW110280   0.618   1.990   3.284  0.1016 -0.5406  0.5381
 3408SOL    HW210281   0.579   1.972   3.429  0.4360  0.3482  0.7481
 3409SOL     OW10282   2.478   4.519   4.931  0.0780  0.0737 -0.2579
 3409SOL    HW110283   2.521   4.434   4.925 -0.1703  0.0038 -1.1872
 3409SOL    HW210284   2.395   4.508   4.884  0.0959  0.8507 -0.4902
 3410SOL     OW10285   3.334   0.077   4.885  0.4481 -0.3314  0.2630
 3410SOL    HW110286   3.413   0.126   4.911  0.7056 -0.7680  0.3178
 3410SOL    HW210287   3.262   0.135   4.908  0.7175 -0.2835  1.0348
 3411SOL     OW10288   3.968   0.055   3.514 -0.1791 -0.1458 -0.5677
 3411SOL    HW110289   4.011   0.022   3.435  0.0065  0.9158 -0.9323
 3411SOL    HW210290   3.926   0.136   3.487  0.6739  0.7370  0.6174
 3412SOL     OW10291   0.414   0.822   2.959 -0.1940 -0.1732 -0.3776
 3412SOL    HW110292   0.464   0.903   2.949 -0.0621  0.0178  1.4149
 3412SOL    HW210293   0.328   0.850   2.990 -0.0536 -0.7064  0.5505
 3413SOL     OW10294   2.071   4.662   3.126 -0.0535 -0.1646  0.7864
 3413SOL    HW110295   2.031   4.740   3.089 -0.6342 -1.3198 -1.1669
 3413SOL    HW210296   2.005   4.627   3.186 -0.0139  0.5203  1.2371
 3414SOL     OW10297   4.380   4.631   4.430  0.0694  0.0051  0.1337
 3414SOL    HW110298   4.349   4.553   4.476 -0.0936 -1.3719 -2.1309
 3414SOL    HW210299   4.466   4.606   4.397 -0.1602  0.6162 -0.9767
 3415SOL     OW10300   4.988   4.343   3.781  0.1483  0.2163  0.2744
 3415SOL    HW110301   4.908   4.346   3.835  0.7119  1.2584  1.0898
 3415SOL    HW210302   4.958   4.364   3.693 -0.3647  1.4666  0.7311
 3416SOL     OW10303   4.900   1.093   2.469  0.2937 -0.0319  0.7299
 3416SOL    HW110304   4.833   1.066   2.532 -0.1730 -0.2656  0.1394
 3416SOL    HW210305   4.876   1.048   2.388  0.8297  0.3512  0.3569
 3417SOL     OW10306   3.943   0.863   0.360  0.2616 -0.4413 -0.0939
 3417SOL    HW110307   3.857   0.901   0.381 -0.2829 -1.6927  0.0343
 3417SOL    HW210308   3.955   0.881   0.267  0.6408  1.2012  0.2424
 3418SOL     OW10309   0.263   0.369   2.700 -0.4500  0.4992 -0.0866
 3418SOL    HW110310   0.296   0.290   2.656 -3.1539 -1.6227  1.3870
 3418SOL    HW210311   0.280   0.439   2.637  4.4483 -0.6227 -0.4201
 3419SOL     OW10312   1.373   2.618   0.349  0.0705 -0.5231  0.1536
 3419SOL    HW110313   1.389   2.711   0.337 -1.1450 -0.1239  1.4662
 3419SOL    HW210314   1.367   2.584   0.259  1.6417  0.4149 -0.3553
 3420SOL     OW10315   4.720   4.348   3.926 -0.0351 -0.0324 -0.1509
 3420SOL    HW110316   4.740   4.323   4.016  0.9422  1.0821 -0.0453
 3420SOL    HW210317   4.649   4.289   3.901  0.3383 -1.0243  1.0092
 3421SOL     OW10318   3.919   0.207   1.993 -0.4488  0.1176 -0.4669
 3421SOL    HW110319   3.964   0.284   1.959 -0.6589 -0.2418 -1.5899
 3421SOL    HW210320   3.831   0.238   2.015 -0.4256  0.2762 -0.5989
 3422SOL     OW10321   4.500   2.759   3.015  0.1009 -0.1479  0.2535
 3422SOL    HW110322   4.518   2.845   3.052  1.7926 -0.1996 -0.3729
 3422SOL    HW210323   4.579   2.708   3.033  0.1668 -0.7781 -1.6025
 3423SOL     OW10324   1.590   0.148   0.297 -0.7620  0.4179 -0.1500
 3423SOL    HW110325   1.617   0.237   0.276 -1.4230  0.7193  0.2366
 3423SOL    HW210326   1.661   0.093   0.265  0.8631  1.2517  1.7937
 3424SOL     OW10327   1.334   1.479   0.617  0.4547  0.5909  0.0298
 3424SOL    HW110328   1.269   1.474   0.687  1.1688 -0.1588  0.6549
 3424SOL    HW210329   1.282   1.483   0.537 -0.4058 -1.5350  0.4021
 3425SOL     OW10330   1.385   2.331   2.703  0.5033  0.3483 -0.1983
 3425SOL    HW110331   1.373   2.266   2.772  1.0590  0.5262  0.0701
 3425SOL    HW210332   1.296   2.351   2.674  0.3602 -1.3142 -1.0297
 3426SOL     OW10333   0.033   4.660   3.492  0.4493  0.2029 -0.0911
 3426SOL    HW110334   0.016   4.570   3.518  0.5656  0.0477 -0.5531
 3426SOL    HW210335   0.118   4.657   3.449  0.6798  0.6158  0.3245
 3427SOL     OW10336   3.951   2.974   3.015 -0.4374  0.3225  0.1910
 3427SOL    HW110337   3.972   3.029   2.940 -2.5186  0.2457 -0.5150
 3427SOL    HW210338   4.015   2.903   3.012  0.6119  1.2582 -0.4415
 3428SOL     OW10339   1.365   1.563   3.318 -0.1574 -0.7004 -0.5020
 3428SOL    HW110340   1.342   1.530   3.404 -0.5566 -0.7116 -0.6143
 3428SOL    HW210341   1.283   1.595   3.281  0.4874  2.2192  0.3614
 3429SOL     OW10342   1.919   3.612   1.840 -0.4569 -0.0676 -0.1686
 3429SOL    HW110343   1.915   3.664   1.760  1.3126  3.1021  1.5747
 3429SOL    HW210344   1.858   3.655   1.900  0.2373 -0.6537  1.0113
 3430SOL     OW10345   2.293   0.339   0.730  0.1980  0.1797  0.4470
 3430SOL    HW110346   2.340   0.274   0.781 -1.0508 -0.4439  0.8479
 3430SOL    HW210347   2.345   0.419   0.738  1.2904 -0.5355  0.6673
 3431SOL     OW10348   0.312   2.652   4.881  0.1415  0.0026  0.0226
 3431SOL    HW110349   0.354   2.593   4.944  0.9970 -0.0042 -0.5289
 3431SOL    HW210350   0.385   2.684   4.827 -0.6909 -0.9133 -1.7222
 3432SOL     OW10351   3.910   2.400   2.248 -0.3700 -0.5090  0.0908
 3432SOL    HW110352   3.880   2.472   2.303  0.8769  1.0123 -1.1048
 3432SOL    HW210353   3.977   2.440   2.191 -1.1803 -2.1080 -2.1128
 3433SOL     OW10354   2.198   2.474   3.126  0.0192  0.6287 -0.3374
 3433SOL    HW110355   2.203   2.431   3.040  0.7150  0.1101 -0.0404
 3433SOL    HW210356   2.227   2.564   3.109  1.2799  0.2165 -0.4324
 3434SOL     OW10357   3.588   3.606   4.952 -0.0182 -0.4294 -0.1998
 3434SOL    HW110358   3.524   3.545   4.915  0.2820 -1.5035  0.9998
 3434SOL    HW210359   3.671   3.560   4.946  0.3264  0.1462  0.0895
 3435SOL     OW10360   2.261   1.805   0.971  0.4111 -0.3094 -0.3674
 3435SOL    HW110361   2.329   1.793   1.038 -0.4877 -0.3879  0.5480
 3435SOL    HW210362   2.219   1.720   0.964 -1.7562  0.5069  1.5095
 3436SOL     OW10363   1.153   0.672   2.190  0.3768  0.4685 -0.5023
 3436SOL    HW110364   1.093   0.631   2.252  0.6191 -1.1569 -1.2938
 3436SOL    HW210365   1.108   0.668   2.106  1.5478 -0.7932 -1.1112
 3437SOL     OW10366   1.616   0.937   0.270 -0.3714 -0.0318  0.0733
 3437SOL    HW110367   1.553   1.009   0.260 -1.3358 -0.5717  1.8985
 3437SOL    HW210368   1.568   0.859   0.242 -0.6030 -0.4629  1.5894
 3438SOL     OW10369   0.379   4.598   2.260 -0.0592 -0.0074 -0.2806
 3438SOL    HW110370   0.362   4.670   2.321  2.4629  0.7241 -0.3137
 3438SOL    HW210371   0.366   4.636   2.173 -0.2723 -0.0492 -0.2667
 3439SOL     OW10372   2.876   0.630   2.141  0.0639 -0.0003  0.6706
 3439SOL    HW110373   2.784   0.639   2.165  0.0633 -1.2396  1.2426
 3439SOL    HW210374   2.914   0.579   2.213  0.8528 -0.8303 -0.3042
 3440SOL     OW10375   4.126   2.275   4.636  0.0720 -0.0912 -0.0291
 3440SOL    HW110376   4.139   2.360   4.595 -1.1142 -0.3846 -1.0840
 3440SOL    HW210377   4.080   2.223   4.569  1.2736 -1.7390  0.3723
 3441SOL     OW10378   1.990   1.833   3.309  0.2251  0.1753 -0.2953
 3441SOL    HW110379   1.960   1.861   3.395 -0.5608  0.6633 -0.7109
 3441SOL    HW210380   2.069   1.782   3.326  0.0075  0.1584  0.7156
 3442SOL     OW10381   0.451   3.304   4.858 -0.0754 -0.2074  0.7800
 3442SOL    HW110382   0.503   3.235   4.817 -0.0157  0.7205 -0.7946
 3442SOL    HW210383   0.363   3.267   4.863  0.2504 -0.9280  1.3082
 3443SOL     OW10384   4.993   3.805   0.936 -0.0536  0.4200 -0.1158
 3443SOL    HW110385   4.940   3.883   0.951  0.2519  0.5349  0.3717
 3443SOL    HW210386   4.942   3.734   0.976  1.5447  0.9556  3.2281
 3444SOL     OW10387   1.027   1.133   4.426  0.1713  0.9788  0.3200
 3444SOL    HW110388   1.045   1.076   4.351  2.1529 -1.2171  2.3139
 3444SOL    HW210389   1.033   1.222   4.390  1.9818  0.0305 -1.9664
 3445SOL     OW10390   0.035   3.586   3.664 -0.2586  0.1624  0.7280
 3445SOL    HW110391   0.058   3.611   3.575 -1.8034 -0.2520  0.1893
 3445SOL    HW210392  -0.059   3.572   3.662 -0.7116  2.1217  2.8799
 3446SOL     OW10393   0.967   3.978   1.533  0.3639  0.3849 -0.6060
 3446SOL    HW110394   1.012   4.061   1.550  0.9089 -0.1898  0.9519
 3446SOL    HW210395   0.875   3.998   1.546  0.5850  0.5033  0.9184
 3447SOL     OW10396   3.819   0.513   4.836 -0.5472  0.1227 -0.0481
 3447SOL    HW110397   3.828   0.458   4.758  1.5944  0.6198 -0.2150
 3447SOL    HW210398   3.763   0.461   4.894 -0.6056 -1.1273 -1.1487
 3448SOL     OW10399   0.550   2.039   1.262 -0.1238 -0.2867 -0.5644
 3448SOL    HW110400   0.607   2.034   1.185  0.7573 -0.1235  0.0694
 3448SOL    HW210401   0.609   2.047   1.336 -0.9194 -1.7545  0.2729
 3449SOL     OW10402   0.219   2.888   1.500 -0.0409  0.6485 -0.5215
 3449SOL    HW110403   0.286   2.905   1.566  0.3754 -0.6463 -0.5852
 3449SOL    HW210404   0.233   2.797   1.474 -0.6327  0.9284 -1.9160
 3450SOL     OW10405   1.732   4.497   0.895 -0.3770 -0.0523 -0.3424
 3450SOL    HW110406   1.824   4.470   0.891 -0.3740 -0.2982  0.9038
 3450SOL    HW210407   1.728   4.577   0.842  0.4387 -0.3154 -0.8207
 3451SOL     OW10408   0.962   1.235   0.233 -0.0482 -0.2506  0.3458
 3451SOL    HW110409   1.019   1.221   0.309 -0.5872 -2.1770  0.4640
 3451SOL    HW210410   0.948   1.330   0.230  1.1592  0.0062  1.7780
 3452SOL     OW10411   4.513   2.138   4.129  0.2598  0.0493 -0.4235
 3452SOL    HW110412   4.539   2.062   4.181 -0.7838  1.8359  2.9745
 3452SOL    HW210413   4.420   2.127   4.114 -0.7021  2.0081  2.9949
 3453SOL     OW10414   4.585   4.067   1.842  0.4269 -0.5085 -0.2332
 3453SOL    HW110415   4.528   4.001   1.882 -0.6995  0.7701  0.3543
 3453SOL    HW210416   4.601   4.035   1.753  0.0351 -1.6337  0.0860
 3454SOL     OW10417   4.881   0.071   4.089  0.1333  0.2362  0.0446
 3454SOL    HW110418   4.937   0.067   4.167 -0.5665 -0.1475  0.5397
 3454SOL    HW210419   4.920   0.008   4.029  0.3899  0.1701  0.2743
 3455SOL     OW10420   4.942  -0.026   1.902 -0.0587 -0.0007 -0.3889
 3455SOL    HW110421   4.924  -0.017   1.995  0.5839 -0.4026 -0.2203
 3455SOL    HW210422   4.929   0.062   1.866  1.0800  0.4805  0.3234
 3456SOL     OW10423   1.423   2.973   1.411 -0.3281  0.4684  0.3908
 3456SOL    HW110424   1.358   3.028   1.367 -0.1802  0.6088  0.3448
 3456SOL    HW210425   1.507   2.999   1.372 -0.1869  0.6418  0.7961
 3457SOL     OW10426   3.489   3.658   4.456 -0.2122  0.2738 -0.6798
 3457SOL    HW110427   3.545   3.623   4.525  1.5154  0.3046 -2.0028
 3457SOL    HW210428   3.479   3.586   4.394 -1.2397  0.4325 -0.7205
 3458SOL     OW10429   1.324   4.468   1.123 -0.4501 -0.4109  0.7178
 3458SOL    HW110430   1.411   4.501   1.102  0.0522 -2.3901 -0.5800
 3458SOL    HW210431   1.287   4.442   1.039 -1.1204 -2.2591  1.5280
 3459SOL     OW10432   2.878   1.133   0.310  0.2493  0.1946  0.2648
 3459SOL    HW110433   2.929   1.214   0.313  1.0032 -0.2973  1.9561
 3459SOL    HW210434   2.932   1.073   0.259  1.3245 -0.2563  1.8651
 3460SOL     OW10435   2.327   3.658   2.475 -0.3406 -0.0733  0.2963
 3460SOL    HW110436   2.332   3.724   2.406  1.5245  0.9312  1.3090
 3460SOL    HW210437   2.242   3.672   2.516 -1.5747 -0.8230 -1.8590
 3461SOL     OW10438   1.987   4.096   0.391 -0.9172 -0.3643  0.0084
 3461SOL    HW110439   2.043   4.032   0.435 -0.3383  0.3967  0.3971
 3461SOL    HW210440   1.988   4.173   0.448 -0.9900  0.2733 -0.8215
 3462SOL     OW10441   2.572   4.456   4.324 -0.0511 -0.4718  0.1100
 3462SOL    HW110442   2.519   4.517   4.376  1.6560  0.4772  0.7977
 3462SOL    HW210443   2.521   4.374   4.324 -0.5927 -0.1849  2.4000
 3463SOL     OW10444   1.292   3.509   4.819 -0.4881  0.1451  0.7291
 3463SOL    HW110445   1.238   3.500   4.740  0.7301 -1.6318  0.0288
 3463SOL    HW210446   1.305   3.603   4.829  0.6454  0.3957 -2.1847
 3464SOL     OW10447   4.219   0.390   1.696  0.1338  0.8320  0.1349
 3464SOL    HW110448   4.139   0.349   1.664  0.1811 -0.4345  1.5219
 3464SOL    HW210449   4.289   0.348   1.646  0.0595  0.6240  0.2082
 3465SOL     OW10450   4.514   4.858   4.986  0.0580  0.0135 -0.1527
 3465SOL    HW110451   4.447   4.825   5.046 -0.6775  0.9258 -0.4489
 3465SOL    HW210452   4.465   4.904   4.918  0.8604 -1.2078 -1.6198
 3466SOL     OW10453   4.066   4.218   0.062  0.0105  0.4580  0.7244
 3466SOL    HW110454   4.015   4.185   0.136  2.2742  0.8390  2.5744
 3466SOL    HW210455   4.101   4.140   0.019 -1.7299  0.2124 -0.3419
 3467SOL     OW10456   1.305   3.132   4.766  0.5231 -0.3387 -0.2351
 3467SOL    HW110457   1.267   3.149   4.852 -0.0451  2.3342 -0.9178
 3467SOL    HW210458   1.393   3.169   4.772  0.8592 -1.0848 -0.5028
 3468SOL     OW10459   2.201   2.607   3.887 -0.0655 -0.3660 -0.2448
 3468SOL    HW110460   2.147   2.598   3.965  1.3496 -0.7062  0.7254
 3468SOL    HW210461   2.229   2.517   3.867  0.1708 -0.1914 -0.7084
 3469SOL     OW10462   1.417   4.203   3.776  0.2502  0.1626 -0.2137
 3469SOL    HW110463   1.343   4.250   3.815 -0.2875 -0.4874 -0.4262
 3469SOL    HW210464   1.383   4.167   3.694  0.9695  0.3352 -0.5944
 3470SOL     OW10465   1.468   0.720   0.198  0.5020 -0.2007  0.6296
 3470SOL    HW110466   1.464   0.669   0.279  0.0879  0.2639  0.9059
 3470SOL    HW210467   1.376   0.728   0.171  0.7172 -1.4795 -0.5987
 3471SOL     OW10468   3.104   3.402   4.015 -0.5057  0.0454  0.3708
 3471SOL    HW110469   3.184   3.450   3.995 -1.1827  0.2924 -2.0191
 3471SOL    HW210470   3.099   3.403   4.111  3.2066 -1.4266  0.7735
 3472SOL     OW10471   1.342   1.186   2.086 -0.6668 -0.1117  0.0245
 3472SOL    HW110472   1.275   1.183   2.018  0.8654 -0.8997 -1.5385
 3472SOL    HW210473   1.316   1.117   2.148 -2.4672  1.0903  0.7072
 3473SOL     OW10474   1.498   2.713   1.847 -0.5016 -0.1691  0.0489
 3473SOL    HW110475   1.475   2.787   1.791  0.2038 -0.7175 -0.9810
 3473SOL    HW210476   1.438   2.721   1.922 -0.6509  1.2482 -0.1903
 3474SOL     OW10477   1.992   4.464   0.298 -0.5818 -0.5495  0.2238
 3474SOL    HW110478   1.989   4.420   0.383 -0.9006  0.8569  0.9658
 3474SOL    HW210479   1.903   4.497   0.286 -0.6730 -1.1609 -0.9037
 3475SOL     OW10480   1.664   1.178   0.006 -0.1778 -0.0856  0.0531
 3475SOL    HW110481   1.623   1.132   0.079  0.8360 -2.1880 -0.6195
 3475SOL    HW210482   1.605   1.164  -0.068 -0.4340  0.7184  0.0949
 3476SOL     OW10483   1.700   4.816   3.728  0.4626  0.8170  0.2227
 3476SOL    HW110484   1.794   4.833   3.719  0.2113  1.6467 -1.0812
 3476SOL    HW210485   1.659   4.869   3.660 -0.8836 -0.3883  0.0405
 3477SOL     OW10486   1.770   0.802   3.206 -0.3050  0.1231 -0.2935
 3477SOL    HW110487   1.697   0.813   3.145 -0.5651  1.6267  0.2397
 3477SOL    HW210488   1.813   0.887   3.208  1.6509 -0.7860 -0.7779
 3478SOL     OW10489   3.034   1.132   3.844  0.2524 -0.3200  0.0059
 3478SOL    HW110490   3.107   1.185   3.877 -1.3815  2.1756 -0.1787
 3478SOL    HW210491   3.067   1.094   3.763  1.2471  1.0696 -0.2795
 3479SOL     OW10492   0.293   2.784   0.842 -0.8220  0.0400 -0.2487
 3479SOL    HW110493   0.332   2.698   0.859 -3.1026 -1.4509 -1.9031
 3479SOL    HW210494   0.224   2.792   0.908  0.1567  1.2473  0.6906
 3480SOL     OW10495   2.217   1.981   0.543  0.0089  0.1671 -0.2710
 3480SOL    HW110496   2.160   1.905   0.529 -0.5957  0.4225  0.6385
 3480SOL    HW210497   2.243   1.974   0.635 -1.8821  2.2161  0.5048
 3481SOL     OW10498   4.039   0.822   4.392 -0.0040 -0.6097 -0.2377
 3481SOL    HW110499   4.076   0.851   4.309  0.3788 -0.9580 -0.1930
 3481SOL    HW210500   4.081   0.737   4.408  0.8983  0.0413  0.9437
 3482SOL     OW10501   3.853   0.323   4.604 -0.0628 -0.7491  0.6397
 3482SOL    HW110502   3.924   0.268   4.637 -1.4175 -2.5300  0.7246
 3482SOL    HW210503   3.824   0.281   4.524 -1.7103 -0.6952  1.1617
 3483SOL     OW10504   0.043   4.256   0.061  0.3676  0.4636 -0.8936
 3483SOL    HW110505   0.135   4.280   0.051 -0.1162  2.4265 -1.2255
 3483SOL    HW210506   0.020   4.213  -0.021  1.2263 -1.0621 -0.3802
 3484SOL     OW10507   2.760   0.832   0.708 -0.0996  0.0879 -0.0343
 3484SOL    HW110508   2.766   0.889   0.631 -0.2409  0.6603  0.3710
 3484SOL    HW210509   2.844   0.845   0.754 -1.0624  1.8828  1.3546
 3485SOL     OW10510   1.984   3.492   0.127 -0.4116  0.2462 -0.2723
 3485SOL    HW110511   2.073   3.457   0.126 -0.2569  0.6164 -1.2813
 3485SOL    HW210512   1.932   3.427   0.080 -0.3668  0.7336 -1.0223
 3486SOL     OW10513   1.313   0.317   2.669 -0.6890 -0.6997  0.1017
 3486SOL    HW110514   1.297   0.407   2.696  0.1060 -0.4093 -0.3737
 3486SOL    HW210515   1.399   0.295   2.706 -0.3479 -0.8606 -0.7648
 3487SOL     OW10516   2.868   4.103   1.554  0.2496  0.0734  0.1197
 3487SOL    HW110517   2.813   4.177   1.580 -0.3154  0.4967 -2.0916
 3487SOL    HW210518   2.806   4.036   1.526  0.6717 -1.8710  3.3154
 3488SOL     OW10519   2.144   4.330   3.310 -0.0165 -0.2646 -0.0075
 3488SOL    HW110520   2.208   4.355   3.244  1.0629 -1.0363  0.7113
 3488SOL    HW210521   2.076   4.397   3.305  2.4095  2.5442  1.4301
 3489SOL     OW10522   2.562   4.695   4.541 -0.1774  0.3199 -0.1881
 3489SOL    HW110523   2.599   4.688   4.629  0.4077 -1.6551 -0.5339
 3489SOL    HW210524   2.638   4.715   4.485  0.0500 -1.4896 -0.6008
 3490SOL     OW10525   4.240   1.578   2.973  0.1503  0.5610 -0.3939
 3490SOL    HW110526   4.245   1.603   3.065 -0.9834 -1.0758  0.1533
 3490SOL    HW210527   4.258   1.484   2.972  1.6133  0.7902 -2.0402
 3491SOL     OW10528   3.693   2.766   0.173  0.3547  0.1229 -0.6325
 3491SOL    HW110529   3.678   2.700   0.104 -1.5825 -1.4837  1.1754
 3491SOL    HW210530   3.780   2.746   0.206  0.4697 -0.4271 -1.2395
 3492SOL     OW10531   1.515   3.132   3.243 -0.0768  0.1205  0.0022
 3492SOL    HW110532   1.611   3.129   3.249  0.0812  0.7927 -1.6165
 3492SOL    HW210533   1.491   3.047   3.208 -0.0606  0.0483  0.1627
 3493SOL     OW10534   2.156   3.461   4.674 -0.8714  0.2827  0.7313
 3493SOL    HW110535   2.192   3.399   4.611 -0.2234  0.2780  1.0963
 3493SOL    HW210536   2.146   3.542   4.625 -3.1180 -0.4495 -0.1663
 3494SOL     OW10537   2.757   2.859   3.362  0.5899 -0.1356  0.6834
 3494SOL    HW110538   2.808   2.888   3.438  1.3020  2.3689 -0.6571
 3494SOL    HW210539   2.800   2.899   3.287 -0.9491 -1.3507 -0.9360
 3495SOL     OW10540   3.432   2.548   1.246  0.1268 -0.2068  0.0528
 3495SOL    HW110541   3.501   2.600   1.205  0.8889  1.4884  3.1532
 3495SOL    HW210542   3.441   2.461   1.208  2.2038  0.6484 -1.5905
 3496SOL     OW10543   1.616   4.847   4.609 -0.1507 -0.3561 -0.2317
 3496SOL    HW110544   1.701   4.811   4.634  0.1788  0.2803 -0.4005
 3496SOL    HW210545   1.605   4.922   4.667 -0.4238 -0.2180 -0.4620
 3497SOL     OW10546   2.596   2.780   1.297 -0.0926 -0.2245  0.6462
 3497SOL    HW110547   2.610   2.685   1.297  0.8227 -0.0967  1.4347
 3497SOL    HW210548   2.517   2.792   1.349 -2.3910 -0.7977 -2.3742
 3498SOL     OW10549   4.472   1.352   3.354  0.0198  0.2187 -0.3785
 3498SOL    HW110550   4.505   1.441   3.341  2.5475 -0.4123  0.9151
 3498SOL    HW210551   4.439   1.352   3.444 -0.6749  0.0352 -0.6303
 3499SOL     OW10552   1.065   4.460   1.287 -0.0492 -0.3475 -0.3227
 3499SOL    HW110553   1.149   4.498   1.259 -1.0275  0.2168 -2.7169
 3499SOL    HW210554   1.002   4.532   1.278 -0.8774 -0.8182  1.2579
 3500SOL     OW10555   4.568   3.625   2.147  0.2494 -0.6200  0.1834
 3500SOL    HW110556   4.624   3.671   2.209  0.6081  1.1911 -1.3715
 3500SOL    HW210557   4.479   3.644   2.177  0.4174  0.2234  0.1859
 3501SOL     OW10558   4.876   2.993   3.938  0.8656  0.2054  0.4150
 3501SOL    HW110559   4.807   3.034   3.991  1.9358  1.3278  0.9789
 3501SOL    HW210560   4.852   3.013   3.848  0.1743  0.1293  0.5752
 3502SOL     OW10561   0.950   2.534   4.825 -0.3718 -0.3937 -0.0013
 3502SOL    HW110562   0.969   2.597   4.894 -0.5858 -1.6673  1.2623
 3502SOL    HW210563   1.033   2.489   4.809 -0.8369 -1.6837  1.0941
 3503SOL     OW10564   2.442   3.093   0.696 -0.1281 -0.1322  0.1225
 3503SOL    HW110565   2.366   3.130   0.741  0.1960 -1.1749  1.5926
 3503SOL    HW210566   2.500   3.168   0.683 -0.9688  0.4988 -0.1689
 3504SOL     OW10567   0.187   2.961   2.527  0.0295 -0.2277 -0.3139
 3504SOL    HW110568   0.205   2.872   2.559  1.3137  0.0709 -0.1590
 3504SOL    HW210569   0.223   3.019   2.594  1.0728  0.4052 -1.3696
 3505SOL     OW10570   1.898   3.331   0.576  0.6938 -0.5147 -0.1203
 3505SOL    HW110571   1.872   3.400   0.515  1.0694  0.4878  0.8209
 3505SOL    HW210572   1.978   3.295   0.539  0.5076 -0.4258 -0.6154
 3506SOL     OW10573   4.873   3.384   2.830  0.7430 -0.0736  0.3908
 3506SOL    HW110574   4.959   3.408   2.795  1.5053 -2.5135  0.3945
 3506SOL    HW210575   4.892   3.317   2.896 -1.0656  0.7023  1.7720
 3507SOL     OW10576   4.707   0.192   3.396  0.4968  0.3014 -0.1256
 3507SOL    HW110577   4.764   0.157   3.465  0.2256 -1.3549 -0.7081
 3507SOL    HW210578   4.749   0.274   3.370  2.5652 -0.7970 -0.4337
 3508SOL     OW10579   2.059   1.787   4.244 -0.1624  0.5029  0.2879
 3508SOL    HW110580   2.036   1.862   4.190 -1.2302  0.4507  0.6475
 3508SOL    HW210581   1.976   1.758   4.283  0.7645  1.8555  3.6543
 3509SOL     OW10582   2.530   3.235   1.035  0.1431 -0.0127  0.0705
 3509SOL    HW110583   2.519   3.321   0.995 -1.1592  0.0089  0.4417
 3509SOL    HW210584   2.565   3.254   1.123  0.0389  0.1212  0.0830
 3510SOL     OW10585   2.014   1.518   1.223  0.0500  0.4346  0.3485
 3510SOL    HW110586   2.110   1.520   1.223  0.0694 -0.1962  0.8560
 3510SOL    HW210587   1.988   1.610   1.216  0.6882  0.6002  0.0995
 3511SOL     OW10588   2.201   3.071   0.976 -0.2203 -0.0135  0.3349
 3511SOL    HW110589   2.292   3.043   0.961 -0.2328  0.3464 -0.4576
 3511SOL    HW210590   2.159   2.996   1.018  0.4175 -0.2139  0.6297
 3512SOL     OW10591   4.164   4.134   2.615 -0.2063  0.0230  0.3540
 3512SOL    HW110592   4.180   4.169   2.527  1.4062 -1.3975  0.0429
 3512SOL    HW210593   4.119   4.205   2.660  0.2437  1.3492 -1.1686
 3513SOL     OW10594   1.499   4.626   0.959  0.4927  0.1010 -0.2644
 3513SOL    HW110595   1.570   4.562   0.952  1.3248  1.1508 -2.0429
 3513SOL    HW210596   1.454   4.621   0.874  0.2505  1.4740 -0.2393
 3514SOL     OW10597   1.413   3.024   1.987  0.5882 -0.1828 -0.6052
 3514SOL    HW110598   1.427   3.004   2.079  0.5569 -1.5969 -0.8823
 3514SOL    HW210599   1.490   2.989   1.942 -0.1812 -1.0863 -1.2795
 3515SOL     OW10600   2.507   0.999   1.996  0.2732 -0.0539 -0.1615
 3515SOL    HW110601   2.579   0.989   1.933  0.3994 -0.9455  0.1224
 3515SOL    HW210602   2.548   1.038   2.073  0.4498 -0.5303 -0.0121
 3516SOL     OW10603   3.705   1.109   2.891 -0.3100 -0.0621 -0.1211
 3516SOL    HW110604   3.737   1.031   2.937  0.1173  0.3710  0.3356
 3516SOL    HW210605   3.766   1.121   2.818  0.6430  0.7918  0.7784
 3517SOL     OW10606   3.092   4.438   2.699  0.4776  0.5200  0.3250
 3517SOL    HW110607   3.084   4.396   2.784  0.9656 -0.7466 -0.2194
 3517SOL    HW210608   3.158   4.385   2.653  0.7433  1.6000 -0.5786
 3518SOL     OW10609   0.180   2.265   0.971 -0.2960 -0.2856 -0.2270
 3518SOL    HW110610   0.176   2.198   1.038  1.7010 -0.5173 -0.2535
 3518SOL    HW210611   0.204   2.218   0.891  0.5826  0.3642 -0.3666
 3519SOL     OW10612   3.389   1.092   4.812  0.0804 -0.2718  0.3594
 3519SOL    HW110613   3.414   1.164   4.870 -0.9037  1.5296 -1.3293
 3519SOL    HW210614   3.463   1.030   4.817  2.2850  2.1369 -0.1593
 3520SOL     OW10615   0.463   0.291   0.345 -0.7459  0.0994  0.2146
 3520SOL    HW110616   0.413   0.352   0.291 -2.3008 -1.2767  0.0207
 3520SOL    HW210617   0.404   0.267   0.416 -0.0744 -0.9487  0.4454
 3521SOL     OW10618   3.466   4.453   4.001 -0.2281 -0.2731 -0.1315
 3521SOL    HW110619   3.438   4.378   3.950 -0.2847  0.8001 -1.7833
 3521SOL    HW210620   3.561   4.441   4.012  0.7019  1.4643 -4.3245
 3522SOL     OW10621   1.835   3.077   3.575 -0.2587  0.2128  0.1122
 3522SOL    HW110622   1.859   2.984   3.566 -1.2257 -0.1148  0.8411
 3522SOL    HW210623   1.799   3.100   3.490 -0.5174 -0.2415  0.0910
 3523SOL     OW10624   3.556   3.067   3.351 -0.1987  0.0421  0.4801
 3523SOL    HW110625   3.649   3.071   3.370  0.3127 -1.4834 -1.3146
 3523SOL    HW210626   3.513   3.104   3.428  1.8148 -0.6131  1.9955
 3524SOL     OW10627   4.091   2.158   3.783  0.5541 -0.0130  0.2477
 3524SOL    HW110628   4.016   2.213   3.761  1.4077  0.3496 -2.0376
 3524SOL    HW210629   4.080   2.080   3.729  2.1078  0.3297 -0.6422
 3525SOL     OW10630   1.731   4.730   3.163  0.8753  0.4099  0.3353
 3525SOL    HW110631   1.746   4.717   3.256 -0.8526  1.6093  0.8473
 3525SOL    HW210632   1.729   4.825   3.152  0.5279  0.2874 -0.8240
 3526SOL     OW10633   2.394   1.541   2.744 -0.2129 -0.2938  0.1390
 3526SOL    HW110634   2.487   1.553   2.761 -0.5088  0.5856  1.2785
 3526SOL    HW210635   2.385   1.449   2.722  0.9677 -0.3195 -0.2802
 3527SOL     OW10636   0.869   0.136   3.190 -0.3452  0.0038 -0.1533
 3527SOL    HW110637   0.777   0.110   3.191 -0.2524 -0.3216  0.9127
 3527SOL    HW210638   0.917   0.056   3.213  0.1510  0.3693  0.1113
 3528SOL     OW10639   4.934   2.742   1.309 -0.5075 -0.0983  0.3035
 3528SOL    HW110640   5.015   2.708   1.346  1.9207  2.7088 -1.9250
 3528SOL    HW210641   4.913   2.681   1.238  0.0256 -0.5017  0.4847
 3529SOL     OW10642   1.302   0.659   4.099 -0.0365 -0.3735 -0.3690
 3529SOL    HW110643   1.340   0.708   4.172 -1.5555  1.4268 -0.7063
 3529SOL    HW210644   1.373   0.604   4.067  1.1342  0.0303  1.4090
 3530SOL     OW10645   4.428   3.866   3.025  0.6011  0.1476  0.2824
 3530SOL    HW110646   4.458   3.777   3.044 -1.5567 -0.6306  0.2862
 3530SOL    HW210647   4.340   3.870   3.062 -0.1918  1.5846 -1.6289
 3531SOL     OW10648   2.028   1.872   2.208 -0.3322  0.0687  0.5181
 3531SOL    HW110649   2.043   1.965   2.224  0.4190 -0.1405  1.0556
 3531SOL    HW210650   1.939   1.856   2.240 -1.7709  1.2567 -2.4395
 3532SOL     OW10651   0.685   4.860   4.604  0.0868  0.4713  0.6116
 3532SOL    HW110652   0.658   4.777   4.565  1.5725  0.6614 -0.9546
 3532SOL    HW210653   0.713   4.837   4.692  1.7056 -0.9522 -0.2177
 3533SOL     OW10654   4.404   2.999   1.071  0.0083 -0.0412  0.0485
 3533SOL    HW110655   4.485   2.949   1.074 -0.3735 -0.7408 -0.8419
 3533SOL    HW210656   4.414   3.065   1.139  0.2347 -1.7721  1.8009
 3534SOL     OW10657   1.941   3.321   4.784  0.5215  0.3274  0.1778
 3534SOL    HW110658   1.893   3.332   4.866 -0.6606  2.0560 -0.6870
 3534SOL    HW210659   1.973   3.408   4.762 -0.2392  0.1758 -1.7986
 3535SOL     OW10660   1.781   0.660   1.762  0.4159 -0.1322 -0.5631
 3535SOL    HW110661   1.857   0.690   1.712  0.1805  1.6661  0.0510
 3535SOL    HW210662   1.775   0.723   1.835 -1.4685 -0.4230 -0.4199
 3536SOL     OW10663   1.143   3.561   4.590 -0.2150  0.2549  0.5397
 3536SOL    HW110664   1.108   3.650   4.587  1.3658  0.8979 -1.2335
 3536SOL    HW210665   1.090   3.513   4.527 -0.3358  0.2668  0.6343
 3537SOL     OW10666   2.702   3.898   0.381 -0.0078 -0.7639 -0.2190
 3537SOL    HW110667   2.699   3.909   0.286  0.4897  0.3252 -0.1208
 3537SOL    HW210668   2.613   3.918   0.410  0.1563  0.1884 -0.3418
 3538SOL     OW10669   0.797   3.818   1.186  0.0421 -0.7657  0.7472
 3538SOL    HW110670   0.724   3.880   1.195  0.7546 -0.0040  1.4249
 3538SOL    HW210671   0.874   3.873   1.173  0.3746 -1.5768 -1.1268
 3539SOL     OW10672   1.060   1.263   3.402 -0.4284 -0.2923 -0.0552
 3539SOL    HW110673   1.106   1.283   3.483  0.0967  1.5363 -0.7362
 3539SOL    HW210674   1.093   1.177   3.375 -0.6054 -0.9137  1.6266
 3540SOL     OW10675   0.654   2.747   4.857  0.9633 -0.0723  0.4942
 3540SOL    HW110676   0.732   2.788   4.894  1.2981 -0.5634  0.3529
 3540SOL    HW210677   0.680   2.722   4.768  0.4774  0.2244  0.2629
 3541SOL     OW10678   3.853   1.884   4.788 -1.0227 -0.2499  0.4385
 3541SOL    HW110679   3.793   1.817   4.822  0.1160 -1.5234  0.0391
 3541SOL    HW210680   3.910   1.837   4.727 -1.0098  1.3675 -0.8731
 3542SOL     OW10681   4.516   0.871   1.909  0.5155  0.4354 -0.3730
 3542SOL    HW110682   4.607   0.856   1.884  1.2990 -1.1173  2.8816
 3542SOL    HW210683   4.509   0.966   1.918  1.6814  0.6085 -1.0503
 3543SOL     OW10684   1.393   4.364   2.238  0.1868  0.0195  0.0256
 3543SOL    HW110685   1.463   4.410   2.192  1.6001 -2.0645 -0.0619
 3543SOL    HW210686   1.413   4.271   2.226 -1.8465 -0.6405  1.1743
 3544SOL     OW10687  -0.018   4.391   0.628 -0.2116 -0.1120 -0.2720
 3544SOL    HW110688   0.058   4.446   0.609 -1.0118  1.9621  1.9980
 3544SOL    HW210689   0.010   4.338   0.703 -0.9575  0.6653  0.5779
 3545SOL     OW10690   2.987   4.299   0.305  1.0606  0.3123  0.0059
 3545SOL    HW110691   3.078   4.328   0.292  0.8378  1.1822  0.3307
 3545SOL    HW210692   2.985   4.267   0.395  1.5414 -1.6830 -0.6364
 3546SOL     OW10693   2.349   1.632   1.598 -0.3521  0.0089 -0.1936
 3546SOL    HW110694   2.363   1.726   1.585  1.0058 -0.1149  0.1533
 3546SOL    HW210695   2.265   1.614   1.556 -0.4238  1.2965 -0.6552
 3547SOL     OW10696   0.656   4.089   1.169  0.0287 -0.0521  0.3252
 3547SOL    HW110697   0.712   4.139   1.228 -0.8264 -0.5148  1.5687
 3547SOL    HW210698   0.579   4.066   1.222 -0.9189 -0.2115 -1.0656
 3548SOL     OW10699   3.542   2.175   3.988  0.6284 -0.1904 -0.0058
 3548SOL    HW110700   3.549   2.246   3.925  0.5495 -0.6322 -0.5165
 3548SOL    HW210701   3.459   2.190   4.033  1.1297  0.6676  0.6731
 3549SOL     OW10702   3.838   0.502   3.487  0.1029 -0.2701 -0.6392
 3549SOL    HW110703   3.927   0.477   3.512  1.3080  3.3025 -0.8308
 3549SOL    HW210704   3.834   0.596   3.503 -3.2014 -0.0306 -2.0633
 3550SOL     OW10705   3.494   3.700   3.574 -0.0744 -0.1197 -0.2870
 3550SOL    HW110706   3.453   3.617   3.549 -1.4544  0.4249  0.1132
 3550SOL    HW210707   3.438   3.735   3.643  0.1804  1.4057 -0.8179
 3551SOL     OW10708   3.631   1.484   4.339  0.2189  0.2703  0.1138
 3551SOL    HW110709   3.600   1.411   4.285 -1.0212 -0.9505  2.3283
 3551SOL    HW210710   3.554   1.512   4.388  1.7945 -0.7669  3.5042
 3552SOL     OW10711   4.371   0.040   0.295  0.1022 -0.1632  0.4274
 3552SOL    HW110712   4.370   0.071   0.204 -2.2390 -1.7125 -0.1438
 3552SOL    HW210713   4.416  -0.044   0.291 -1.7636 -1.2008  0.2871
 3553SOL     OW10714   1.163   1.856   3.322 -0.0595 -0.0970  0.1381
 3553SOL    HW110715   1.085   1.829   3.370 -1.8411  1.8904 -1.4679
 3553SOL    HW210716   1.181   1.783   3.263 -0.4692 -0.7219  0.7691
 3554SOL     OW10717   4.549   3.990   2.477  0.3349 -0.1300  0.6943
 3554SOL    HW110718   4.597   4.035   2.546 -1.0366  2.3054  0.1876
 3554SOL    HW210719   4.553   4.050   2.402 -1.7152 -0.7517  0.0103
 3555SOL     OW10720   4.245   4.160   1.786 -0.1177 -0.0994 -0.3088
 3555SOL    HW110721   4.290   4.129   1.864 -0.4807 -1.4521 -0.6193
 3555SOL    HW210722   4.228   4.253   1.803  3.0661  0.5889 -0.3261
 3556SOL     OW10723   2.260   1.078   1.910  0.6564  0.6078  0.3560
 3556SOL    HW110724   2.245   1.012   1.842 -0.1320 -0.4193  1.4889
 3556SOL    HW210725   2.348   1.060   1.942 -0.4141 -1.5778  2.3580
 3557SOL     OW10726   3.976   0.218   0.480  0.2415  0.1022  0.1321
 3557SOL    HW110727   4.067   0.187   0.483  0.6729  1.3522  1.3480
 3557SOL    HW210728   3.971   0.282   0.551 -1.8855 -0.6995  0.7765
 3558SOL     OW10729   0.535   3.242   3.905 -0.6103 -0.1822 -0.0213
 3558SOL    HW110730   0.463   3.227   3.966 -0.1080 -0.0593  0.6180
 3558SOL    HW210731   0.545   3.159   3.859 -1.6998  0.0583 -0.7164
 3559SOL     OW10732   2.531   2.015   1.049 -0.0512  0.4409  0.5561
 3559SOL    HW110733   2.498   1.979   1.131 -0.2461 -2.3253 -0.6139
 3559SOL    HW210734   2.588   2.087   1.075  1.8154 -1.8335  3.3033
 3560SOL     OW10735   1.886   0.290   1.022 -0.1348  0.3703  0.4201
 3560SOL    HW110736   1.930   0.320   0.942 -0.4436  0.5572  0.3178
 3560SOL    HW210737   1.878   0.368   1.076 -1.0029  0.4973  0.1253
 3561SOL     OW10738   1.764   3.790   2.463 -0.5066  0.2100  0.3824
 3561SOL    HW110739   1.782   3.765   2.554 -2.7399  0.3933  0.9301
 3561SOL    HW210740   1.751   3.707   2.418 -1.3958  0.1570  0.7138
 3562SOL     OW10741   4.703   2.958   0.275 -0.2036  0.2183  0.2219
 3562SOL    HW110742   4.768   2.960   0.345  0.3006  1.4398 -0.2503
 3562SOL    HW210743   4.724   2.880   0.224 -0.5579 -0.6619  1.3904
 3563SOL     OW10744   3.752   3.334   3.711  0.0153 -0.4346 -0.3311
 3563SOL    HW110745   3.789   3.248   3.691 -2.7582 -1.6279 -0.7676
 3563SOL    HW210746   3.742   3.335   3.806 -0.8512 -1.0386 -0.4039
 3564SOL     OW10747   0.763   1.890   0.040  0.0107 -0.1473  0.2603
 3564SOL    HW110748   0.690   1.891   0.102  1.0688 -1.3807  1.5963
 3564SOL    HW210749   0.750   1.968  -0.014 -1.7223  0.1997  1.1165
 3565SOL     OW10750   1.192   4.868   2.023  0.1501 -0.2305  0.8201
 3565SOL    HW110751   1.258   4.841   1.959 -1.5598 -0.9738 -0.7103
 3565SOL    HW210752   1.187   4.795   2.084  0.5725 -0.2615  0.8260
 3566SOL     OW10753   4.896   1.805   4.210  0.3736  0.0567  0.0342
 3566SOL    HW110754   4.937   1.819   4.124 -0.2522 -1.3196 -0.5050
 3566SOL    HW210755   4.954   1.743   4.254 -0.3581 -0.8098 -0.1935
 3567SOL     OW10756   3.012   3.473   1.769  0.0602  0.2812  0.0258
 3567SOL    HW110757   2.969   3.427   1.841 -0.7592  0.3223 -0.4354
 3567SOL    HW210758   3.087   3.417   1.746  0.0384  0.0233  0.5768
 3568SOL     OW10759   1.697   2.779   0.451 -0.3823  0.0420  0.6766
 3568SOL    HW110760   1.653   2.846   0.504  1.8390  0.6604  1.8541
 3568SOL    HW210761   1.730   2.716   0.515 -0.2078 -0.7953 -0.2235
 3569SOL     OW10762   1.596   3.631   4.880  0.0632  0.8687  0.0916
 3569SOL    HW110763   1.579   3.721   4.910  0.5620  1.5204 -1.4651
 3569SOL    HW210764   1.582   3.634   4.786 -2.2637 -1.2988  0.2817
 3570SOL     OW10765   2.502   2.035   3.155  0.5997 -0.6196  0.0769
 3570SOL    HW110766   2.576   2.023   3.096  0.8504 -2.4906  0.6953
 3570SOL    HW210767   2.539   2.076   3.233  0.5227  0.6184 -0.5308
 3571SOL     OW10768   2.232   1.318   3.537  0.0394 -0.2795 -0.1184
 3571SOL    HW110769   2.149   1.363   3.552 -0.6509 -1.9565  1.3994
 3571SOL    HW210770   2.210   1.246   3.477  0.2006 -1.2036  0.9038
 3572SOL     OW10771   0.244   4.771   2.897 -0.7437 -0.3962 -0.2452
 3572SOL    HW110772   0.264   4.842   2.958 -0.8890 -0.4307 -0.1571
 3572SOL    HW210773   0.325   4.721   2.890 -0.5490 -0.0406 -0.5484
 3573SOL     OW10774   2.276   4.762   2.795  0.0705 -0.1789  0.0417
 3573SOL    HW110775   2.232   4.809   2.866  1.0704 -1.7614  1.8230
 3573SOL    HW210776   2.244   4.672   2.803  1.9184 -0.8851 -0.0119
 3574SOL     OW10777   1.525   3.729   0.442  0.6190  0.0595  0.3189
 3574SOL    HW110778   1.492   3.759   0.357 -0.2410 -0.8886  0.3042
 3574SOL    HW210779   1.561   3.808   0.483 -0.8473  0.9579 -0.0622
 3575SOL     OW10780   3.211   2.331   1.369  0.0517  0.0604 -0.1682
 3575SOL    HW110781   3.187   2.416   1.332  1.3581  0.6592  0.3131
 3575SOL    HW210782   3.127   2.286   1.382 -0.5615 -0.3289 -4.0721
 3576SOL     OW10783   4.667   1.665   1.082 -0.0716  0.2955  0.3662
 3576SOL    HW110784   4.580   1.695   1.108  0.1737  0.3154  1.2208
 3576SOL    HW210785   4.715   1.746   1.061 -0.2875  0.2768 -0.1955
 3577SOL     OW10786   1.493   4.000   4.799 -0.1419 -0.5265  0.1009
 3577SOL    HW110787   1.409   4.040   4.777 -1.4911 -2.1620  1.9439
 3577SOL    HW210788   1.546   4.011   4.720 -1.2599  2.5241 -0.3730
 3578SOL     OW10789   3.490   3.651   1.165 -1.0238 -0.0865  0.2108
 3578SOL    HW110790   3.416   3.632   1.107  0.2555 -1.2375 -1.1558
 3578SOL    HW210791   3.512   3.743   1.146 -0.7152 -0.4033 -1.0662
 3579SOL     OW10792   1.398   1.121   3.453 -0.2412  0.0408 -0.2866
 3579SOL    HW110793   1.426   1.131   3.544  1.3136  0.8528 -0.8152
 3579SOL    HW210794   1.479   1.101   3.405 -1.3286 -2.6684 -1.1952
 3580SOL     OW10795   4.211   4.825   4.476 -0.5206 -0.1501 -0.6153
 3580SOL    HW110796   4.277   4.759   4.454 -0.3166  0.4059 -1.7165
 3580SOL    HW210797   4.199   4.816   4.571  0.0794 -1.2289 -0.6259
 3581SOL     OW10798   4.924   2.825   2.465  0.2312 -0.3202 -0.1463
 3581SOL    HW110799   5.003   2.791   2.509  0.3131  1.7724  1.4640
 3581SOL    HW210800   4.856   2.761   2.486  0.7327 -0.3651  1.4529
 3582SOL     OW10801   2.963   3.054   1.769  0.3511 -0.0807 -0.1052
 3582SOL    HW110802   2.953   3.068   1.674  0.9663 -1.7616 -0.4417
 3582SOL    HW210803   3.035   2.991   1.777 -0.8426 -1.3179  1.3934
 3583SOL     OW10804   1.393  -0.016   0.365 -0.1814  0.1474 -0.5113
 3583SOL    HW110805   1.432  -0.048   0.283  0.0606  1.2682 -0.8542
 3583SOL    HW210806   1.441   0.065   0.384 -0.1482 -0.1640  0.8175
 3584SOL     OW10807   2.242   3.874   4.940 -0.0574  0.4447  0.0991
 3584SOL    HW110808   2.190   3.953   4.930 -1.5349 -0.6878 -1.8224
 3584SOL    HW210809   2.182   3.810   4.978  1.0652  0.1636  1.4725
 3585SOL     OW10810   1.053   0.714   3.291 -0.3483  0.1724 -0.0707
 3585SOL    HW110811   1.131   0.668   3.321 -1.0156  0.2017  1.8507
 3585SOL    HW210812   1.016   0.753   3.370 -0.8299  2.4760 -1.3346
 3586SOL     OW10813   0.629   3.877   1.586 -0.0536  0.2681  0.1910
 3586SOL    HW110814   0.663   3.967   1.581  1.2274 -0.1999  0.2508
 3586SOL    HW210815   0.697   3.824   1.546 -0.7869 -0.6958  0.2010
 3587SOL     OW10816   2.668   0.480   3.091 -0.5486  0.2501  0.0458
 3587SOL    HW110817   2.759   0.510   3.081 -0.8483  1.1838  0.0820
 3587SOL    HW210818   2.620   0.557   3.118 -1.3298 -0.2901  0.2242
 3588SOL     OW10819   1.671   0.400   0.315  0.3592  0.5875  0.0857
 3588SOL    HW110820   1.739   0.353   0.363  0.2361 -2.1496 -2.1448
 3588SOL    HW210821   1.718   0.469   0.269  1.2038  0.3671  0.5856
 3589SOL     OW10822   4.874   3.656   1.906 -0.4114 -0.0123 -1.0395
 3589SOL    HW110823   4.965   3.628   1.898 -0.2918  0.1555 -0.3618
 3589SOL    HW210824   4.876   3.725   1.973 -1.2860 -1.3016  0.3734
 3590SOL     OW10825   2.368   0.787   4.744  0.1643  0.7820 -0.1245
 3590SOL    HW110826   2.308   0.762   4.814 -0.7972 -0.6871 -1.4166
 3590SOL    HW210827   2.368   0.712   4.684 -0.0057  2.4630 -2.3468
 3591SOL     OW10828   1.360   3.390   1.940 -0.4808 -0.3783  0.3339
 3591SOL    HW110829   1.340   3.307   1.984  0.5937 -1.0602 -0.4282
 3591SOL    HW210830   1.447   3.377   1.902  0.0906  1.4002  0.9188
 3592SOL     OW10831   0.382   2.692   0.349 -0.2296 -0.7285 -0.1992
 3592SOL    HW110832   0.300   2.655   0.317  0.0624 -0.8735 -0.7900
 3592SOL    HW210833   0.364   2.785   0.360 -0.8444 -0.9619  0.8968
 3593SOL     OW10834   2.076   0.067   4.445  0.3703 -0.2458 -1.1334
 3593SOL    HW110835   2.060   0.006   4.516  0.9672 -1.5361 -2.0532
 3593SOL    HW210836   2.024   0.144   4.466  0.2100 -0.7644  0.4603
 3594SOL     OW10837   4.774   0.904   1.131  0.5101  0.6873  0.0593
 3594SOL    HW110838   4.757   0.815   1.162  0.1347  0.6670 -0.2030
 3594SOL    HW210839   4.723   0.911   1.051 -0.3104  1.5014  0.6424
 3595SOL     OW10840   0.439   4.352   2.901 -0.2287 -0.4707  0.2832
 3595SOL    HW110841   0.409   4.284   2.841 -1.0143 -0.0044  0.1262
 3595SOL    HW210842   0.361   4.377   2.950  0.4757 -1.0833  1.7576
 3596SOL     OW10843   0.825   4.298   2.539 -0.0569 -0.3491 -0.0020
 3596SOL    HW110844   0.845   4.256   2.455 -0.9671 -0.8178  0.0038
 3596SOL    HW210845   0.901   4.277   2.594 -0.3017 -1.6733 -0.1186
 3597SOL     OW10846   0.337   4.272   1.801 -0.2619  0.0993 -0.6848
 3597SOL    HW110847   0.401   4.216   1.844  0.7558  1.8327  0.2025
 3597SOL    HW210848   0.254   4.226   1.809  0.1284 -0.2825  2.0014
 3598SOL     OW10849   1.500   1.675   0.691 -0.1486  0.0546 -0.5544
 3598SOL    HW110850   1.434   1.606   0.683 -1.2415  0.9594  0.3540
 3598SOL    HW210851   1.450   1.755   0.706  1.1768  0.5320  1.7581
 3599SOL     OW10852   4.943   1.467   3.122  0.2896  0.1101 -0.0438
 3599SOL    HW110853   4.858   1.462   3.079  0.4097 -0.6588 -0.1996
 3599SOL    HW210854   4.944   1.554   3.162  0.2017  0.8857 -1.6376
 3600SOL     OW10855   1.628   0.581   4.435 -0.0731  0.8212 -0.1822
 3600SOL    HW110856   1.717   0.562   4.463 -0.3148  0.1498  0.1502
 3600SOL    HW210857   1.587   0.624   4.511  0.1822  1.8128 -0.5926
 3601SOL     OW10858   2.081   3.616   4.211 -0.3840  0.1512 -0.1599
 3601SOL    HW110859   2.075   3.574   4.125 -0.8131 -1.7372  0.7424
 3601SOL    HW210860   2.007   3.677   4.213  0.5096  1.3790 -1.6669
 3602SOL     OW10861   3.034   2.847   4.796  0.5550  0.3688  0.0803
 3602SOL    HW110862   3.084   2.816   4.720 -1.8085  1.4581 -2.0575
 3602SOL    HW210863   3.005   2.767   4.839  0.1272 -0.3538 -1.4674
 3603SOL     OW10864   4.687   2.188   2.465  0.3011 -0.1122  0.0916
 3603SOL    HW110865   4.596   2.200   2.494 -0.4046 -2.0114 -1.1480
 3603SOL    HW210866   4.689   2.223   2.376 -0.0639 -2.6529 -1.0094
 3604SOL     OW10867   3.297   1.129   0.486  0.1570  0.0999 -0.5242
 3604SOL    HW110868   3.345   1.209   0.464  1.7388 -0.7683 -0.4196
 3604SOL    HW210869   3.259   1.147   0.572  0.0797  0.9002 -0.7155
 3605SOL     OW10870   4.822   0.508   4.825 -0.0986  0.3366  0.0117
 3605SOL    HW110871   4.800   0.592   4.786  0.7267  1.5925  2.0571
 3605SOL    HW210872   4.914   0.516   4.850 -0.0571 -1.1038  0.4353
 3606SOL     OW10873   0.433   0.945   0.071 -0.0003 -0.8716  0.1199
 3606SOL    HW110874   0.384   0.864   0.084 -0.9330 -0.3075  0.2468
 3606SOL    HW210875   0.491   0.927  -0.003  1.0504 -2.1978  1.2217
 3607SOL     OW10876   4.015   1.930   3.622 -0.0710  0.2444  1.1714
 3607SOL    HW110877   3.967   1.962   3.546  0.3720  1.3920  1.3492
 3607SOL    HW210878   4.086   1.878   3.586 -2.5263 -3.3090  0.9266
 3608SOL     OW10879   2.978   0.739   4.396 -0.2056 -0.0113  0.2975
 3608SOL    HW110880   2.891   0.730   4.435 -0.7102 -0.2687 -0.8604
 3608SOL    HW210881   3.022   0.803   4.451 -1.6684  1.3217 -0.0265
 3609SOL     OW10882   3.630   1.785   0.036 -0.6137  0.0199 -0.3657
 3609SOL    HW110883   3.700   1.736  -0.009  0.1263 -0.6451  1.4048
 3609SOL    HW210884   3.667   1.871   0.051  0.1601 -0.5583  1.2297
 3610SOL     OW10885   4.479   0.136   3.658 -0.9304  0.3041 -0.5107
 3610SOL    HW110886   4.533   0.079   3.604 -1.0267 -0.1331 -0.1523
 3610SOL    HW210887   4.532   0.215   3.669 -0.6322  0.1330 -0.6889
 3611SOL     OW10888   2.176   4.215   0.177 -0.0701 -0.0078  0.7295
 3611SOL    HW110889   2.126   4.238   0.099 -0.4133 -1.9356  0.3419
 3611SOL    HW210890   2.128   4.254   0.249 -0.5731  0.5332  0.1136
 3612SOL     OW10891   4.159   1.289   3.787  0.5474  0.6012 -0.3320
 3612SOL    HW110892   4.189   1.302   3.877 -0.7421 -0.4066  0.2703
 3612SOL    HW210893   4.209   1.214   3.755 -1.5385 -1.4307  0.8554
 3613SOL     OW10894   2.035   1.251   3.815 -0.1323 -0.0160  0.7409
 3613SOL    HW110895   2.016   1.163   3.783  0.2574  0.7095 -1.6923
 3613SOL    HW210896   2.104   1.239   3.880  0.2537 -1.4799  0.0994
 3614SOL     OW10897   4.223   2.544   4.784  0.4764  0.4498 -0.3351
 3614SOL    HW110898   4.306   2.518   4.744  0.7293  1.6018 -0.5990
 3614SOL    HW210899   4.197   2.623   4.737 -1.6528 -0.7922 -1.3982
 3615SOL     OW10900   4.126   2.386   1.157 -0.1321 -0.4861  0.0095
 3615SOL    HW110901   4.074   2.361   1.233 -1.0033 -0.5557 -0.5903
 3615SOL    HW210902   4.092   2.472   1.132  1.2603  0.2813  0.6564
 3616SOL     OW10903   0.476   1.477   1.842 -0.1798 -0.4991  0.3386
 3616SOL    HW110904   0.465   1.463   1.748 -2.2717  2.1954  0.0325
 3616SOL    HW210905   0.552   1.534   1.849 -0.7736  0.3449  0.1105
 3617SOL     OW10906   2.986   2.128   4.217  0.1211 -0.0655  0.1431
 3617SOL    HW110907   2.913   2.068   4.201  1.1875 -1.5153  0.4800
 3617SOL    HW210908   2.976   2.196   4.151 -1.9034  0.1553  0.6086
 3618SOL     OW10909   0.069   2.526   0.472 -0.4100 -0.2441  0.2681
 3618SOL    HW110910   0.075   2.456   0.407 -3.5505  0.9603 -1.5060
 3618SOL    HW210911   0.097   2.604   0.425  2.2464 -0.0167  1.9861
 3619SOL     OW10912   4.227   1.657   4.212  0.6642 -0.5078  0.2203
 3619SOL    HW110913   4.245   1.721   4.142 -0.0560 -1.0535 -0.4750
 3619SOL    HW210914   4.301   1.666   4.272  0.7072  0.8050  0.0064
 3620SOL     OW10915   4.502   3.465   3.876  0.3394  0.1237  0.0165
 3620SOL    HW110916   4.523   3.445   3.785  2.2010 -0.4345  0.5436
 3620SOL    HW210917   4.518   3.384   3.923  1.2446  0.9280  1.1343
 3621SOL     OW10918   0.916   2.830   4.926  0.1866  0.1033 -0.1643
 3621SOL    HW110919   0.918   2.907   4.982  0.2395  0.6481 -0.8922
 3621SOL    HW210920   0.909   2.865   4.837 -1.1374 -0.7519 -0.4373
 3622SOL     OW10921   2.206   2.142   2.611  0.3442 -0.1210  0.1876
 3622SOL    HW110922   2.181   2.185   2.529  0.6004 -0.7400 -0.2266
 3622SOL    HW210923   2.154   2.186   2.678  0.9464  1.1662 -0.1472
 3623SOL     OW10924   3.246   4.278   2.516 -0.1445 -0.1854 -0.1748
 3623SOL    HW110925   3.216   4.216   2.450  1.2728 -0.8743 -0.2117
 3623SOL    HW210926   3.302   4.227   2.574  1.8667  1.1956 -0.7713
 3624SOL     OW10927   4.516   3.772   4.567  0.0525 -0.4745  0.4633
 3624SOL    HW110928   4.572   3.696   4.583 -0.7259 -1.1400  0.1433
 3624SOL    HW210929   4.507   3.775   4.472 -1.7496 -1.3788  0.5627
 3625SOL     OW10930   4.630   3.990   0.339 -0.7816 -0.0156 -0.2326
 3625SOL    HW110931   4.587   4.065   0.382 -0.5277  1.1372 -1.8968
 3625SOL    HW210932   4.673   4.028   0.263  3.1895 -1.0580  1.2183
 3626SOL     OW10933   0.155   4.059   1.022 -0.4447  0.1522 -0.4433
 3626SOL    HW110934   0.079   4.006   1.042 -1.7556  2.1621  0.1538
 3626SOL    HW210935   0.187   4.089   1.107  1.7613 -1.5508 -0.5796
 3627SOL     OW10936   1.710   0.854   1.246  0.1463 -0.1478 -0.5702
 3627SOL    HW110937   1.798   0.888   1.230 -0.1770  1.2966  0.5204
 3627SOL    HW210938   1.675   0.838   1.159  0.7689  1.2218 -1.1098
 3628SOL     OW10939   4.283   3.834   3.551 -0.0818  0.3070  0.0769
 3628SOL    HW110940   4.219   3.858   3.484  0.1406  3.6759  0.9168
 3628SOL    HW210941   4.234   3.836   3.633  0.0563 -2.0429  0.2843
 3629SOL     OW10942   0.647   4.484   2.274 -0.5223 -0.2669 -0.1617
 3629SOL    HW110943   0.559   4.522   2.280 -0.7093 -0.9224  2.0831
 3629SOL    HW210944   0.639   4.399   2.318  1.1156 -0.6039 -0.4514
 3630SOL     OW10945   1.278   2.333   1.967 -0.1455 -0.0813 -0.1718
 3630SOL    HW110946   1.258   2.369   1.881 -0.7081  1.6230  0.6437
 3630SOL    HW210947   1.216   2.260   1.977 -0.0628 -0.3118 -1.1997
 3631SOL     OW10948   1.937   2.023   0.724 -0.6099  0.5399 -0.5215
 3631SOL    HW110949   1.906   2.033   0.814  0.0070  0.9749 -0.3558
 3631SOL    HW210950   2.031   2.009   0.732 -0.8233 -1.5016 -0.9737
 3632SOL     OW10951   1.524   2.806   2.207 -0.1635 -0.2029  0.3264
 3632SOL    HW110952   1.566   2.721   2.218 -0.4742 -0.3860  0.1184
 3632SOL    HW210953   1.437   2.785   2.172 -0.1288  0.2142 -0.0092
 3633SOL     OW10954   0.520   4.463   3.780  0.2807  0.0223 -0.6838
 3633SOL    HW110955   0.582   4.518   3.733  2.3359  0.5297  2.3519
 3633SOL    HW210956   0.530   4.376   3.741  0.1020  0.8541 -2.7071
 3634SOL     OW10957   3.178   2.162   3.278  0.4419 -0.3796 -0.2387
 3634SOL    HW110958   3.173   2.109   3.199  0.6576 -0.2206 -0.3580
 3634SOL    HW210959   3.099   2.216   3.276  0.0358 -0.9474  0.0648
 3635SOL     OW10960   0.443   3.093   1.424  0.5673 -0.5598 -0.2017
 3635SOL    HW110961   0.394   3.170   1.452  0.6852 -0.3694 -0.5073
 3635SOL    HW210962   0.460   3.044   1.504  1.0938  0.0846  0.0879
 3636SOL     OW10963   2.768   1.803   1.501  0.8112  0.7078  0.4346
 3636SOL    HW110964   2.839   1.761   1.548  1.3597  0.7116 -0.3658
 3636SOL    HW210965   2.810   1.842   1.424  0.0414  1.2348  0.2688
 3637SOL     OW10966   0.051   2.232   4.980 -0.2812  0.0058 -0.0474
 3637SOL    HW110967   0.084   2.199   4.896 -1.3463  1.2997 -1.0161
 3637SOL    HW210968   0.125   2.279   5.018 -0.0248  0.0911 -0.6381
 3638SOL     OW10969   2.043   4.041   2.966  0.0979  1.1344 -0.6491
 3638SOL    HW110970   1.948   4.031   2.958  0.0540 -1.1902  1.3157
 3638SOL    HW210971   2.059   4.042   3.061  2.0922  0.4628 -0.9155
 3639SOL     OW10972   3.171   3.258   2.793 -0.7790 -0.5606  0.4023
 3639SOL    HW110973   3.124   3.257   2.710 -1.3213 -0.0728  0.6926
 3639SOL    HW210974   3.121   3.199   2.849 -0.4298 -0.8686  0.3935
 3640SOL     OW10975   0.555   3.896   0.988  0.2656  0.2469 -0.6009
 3640SOL    HW110976   0.607   3.886   0.908  1.6689 -0.8953  0.3944
 3640SOL    HW210977   0.590   3.976   1.029  1.3790 -0.5677  0.1118
 3641SOL     OW10978   3.609   2.526   2.172 -0.5860 -0.4902  0.2122
 3641SOL    HW110979   3.644   2.614   2.183 -1.3877  0.0624 -1.4219
 3641SOL    HW210980   3.639   2.479   2.250 -0.3387  1.2737  1.2430
 3642SOL     OW10981   4.101   3.965   4.209 -0.3151 -0.0003  0.7883
 3642SOL    HW110982   4.095   4.037   4.272  0.5545  0.8299 -0.0407
 3642SOL    HW210983   4.028   3.979   4.149  0.8678  1.2911 -0.4329
 3643SOL     OW10984   1.957   2.365   1.488  0.0836 -0.1156  0.9715
 3643SOL    HW110985   1.881   2.357   1.431 -0.0227 -1.4197  1.2673
 3643SOL    HW210986   1.953   2.455   1.520  0.7224  1.0147 -1.8237
 3644SOL     OW10987   4.204   2.353   2.363  0.4930  0.5141  0.4053
 3644SOL    HW110988   4.134   2.417   2.368  0.5993  0.6118  0.6799
 3644SOL    HW210989   4.168   2.275   2.405  0.4072  0.4325  0.1813
 3645SOL     OW10990   1.797   1.879  -0.019  0.5472 -0.7014  0.4782
 3645SOL    HW110991   1.721   1.821  -0.010  0.5702 -1.0639 -1.2907
 3645SOL    HW210992   1.867   1.836   0.031  0.2507 -1.6081  0.1241
 3646SOL     OW10993   1.967   0.971   1.202  0.2386  0.0251  0.3202
 3646SOL    HW110994   1.969   0.981   1.297 -0.9340 -0.3977  0.4092
 3646SOL    HW210995   1.979   1.059   1.168 -0.2660  0.3207  0.8889
 3647SOL     OW10996   2.373   2.338   2.164 -0.0887 -0.1854 -0.0725
 3647SOL    HW110997   2.466   2.359   2.153  0.0447 -1.6392 -2.4320
 3647SOL    HW210998   2.367   2.245   2.143 -1.9359 -0.3832  1.1372
 3648SOL     OW10999   4.302   0.087   4.210  0.5317 -0.1195  0.3046
 3648SOL    HW111000   4.310   0.051   4.122 -0.6625 -1.0708  0.5611
 3648SOL    HW211001   4.208   0.090   4.226  0.7303  0.2217  1.4831
 3649SOL     OW11002   1.010   0.616   1.504 -0.2619 -0.0680  0.2752
 3649SOL    HW111003   0.946   0.593   1.571 -0.8753  0.8883  0.0380
 3649SOL    HW211004   1.069   0.540   1.500  0.3968  0.2330  2.5771
 3650SOL     OW11005   3.684   0.041   0.256  0.0564 -0.4552  0.3922
 3650SOL    HW111006   3.678   0.046   0.351 -0.6832 -0.5351  0.3592
 3650SOL    HW211007   3.770   0.077   0.235  0.8992 -1.9177  1.1953
 3651SOL     OW11008   2.639   1.608   2.834  0.2946  0.3203  0.4327
 3651SOL    HW111009   2.641   1.678   2.768 -1.6921  1.1450  1.1535
 3651SOL    HW211010   2.731   1.588   2.851  0.8861  0.7956 -1.8135
 3652SOL     OW11011   4.600   3.199   3.886 -0.0118  0.2015 -0.2709
 3652SOL    HW111012   4.597   3.118   3.938  2.5658  0.7118  0.8343
 3652SOL    HW211013   4.557   3.176   3.804 -1.4402 -1.5754  0.8857
 3653SOL     OW11014   1.981   0.011   1.075 -0.4841 -0.0296 -0.4258
 3653SOL    HW111015   1.901   0.064   1.074  0.0311  0.8790  1.3064
 3653SOL    HW211016   2.050   0.073   1.100  0.1049 -1.5069  1.9908
 3654SOL     OW11017   2.489   2.932   1.090  0.3971 -0.8120 -0.0642
 3654SOL    HW111018   2.517   3.012   1.045  2.0501 -2.2962 -1.8373
 3654SOL    HW211019   2.551   2.923   1.163  0.3470 -0.6241  0.0046
 3655SOL     OW11020   1.446   2.378   4.761  0.0347 -0.1253 -0.3815
 3655SOL    HW111021   1.351   2.391   4.763 -0.0858 -0.4513 -2.4509
 3655SOL    HW211022   1.481   2.458   4.801 -1.0973  0.0666  0.2699
 3656SOL     OW11023   4.250   1.971   0.970 -0.1258 -0.0113 -0.2120
 3656SOL    HW111024   4.243   2.066   0.970 -0.0578  0.1800  3.8817
 3656SOL    HW211025   4.177   1.942   0.915  0.0669  2.3293 -1.8603
 3657SOL     OW11026   2.330   4.368   0.655  0.1261  0.0945  0.2724
 3657SOL    HW111027   2.288   4.282   0.653 -0.4040  0.3661 -0.8670
 3657SOL    HW211028   2.385   4.366   0.734 -2.4469 -0.0518  2.1649
 3658SOL     OW11029   2.326   1.218   0.294  0.0475  0.2980 -0.2129
 3658SOL    HW111030   2.330   1.199   0.200  0.1816 -1.8087  0.1517
 3658SOL    HW211031   2.321   1.131   0.335  0.1990  1.1595  1.7373
 3659SOL     OW11032   3.565   3.977   3.921  0.6328  0.1527  0.0671
 3659SOL    HW111033   3.571   3.893   3.966  1.1714 -0.1460 -0.5354
 3659SOL    HW211034   3.573   4.042   3.991  1.2835 -0.2992  0.4295
 3660SOL     OW11035   3.407   2.298   1.810 -0.1755 -0.3422  0.1898
 3660SOL    HW111036   3.397   2.253   1.726  0.5283 -0.5669  0.2212
 3660SOL    HW211037   3.339   2.366   1.809 -0.4303 -0.5991 -0.3907
 3661SOL     OW11038   3.068   1.716   3.853 -0.2536  0.0164  0.2149
 3661SOL    HW111039   3.078   1.811   3.852  1.9836 -0.0980 -2.5167
 3661SOL    HW211040   3.110   1.688   3.934  1.0661  1.2800  0.0070
 3662SOL     OW11041   0.779   4.277   0.693 -0.7679  0.1721  0.3998
 3662SOL    HW111042   0.705   4.330   0.664 -1.4421 -1.1193 -0.3459
 3662SOL    HW211043   0.774   4.278   0.788  0.8629  3.6331  0.6162
 3663SOL     OW11044   0.765   3.735   1.957 -0.0112  0.7053  0.2500
 3663SOL    HW111045   0.797   3.646   1.942  0.0634  0.3732  2.1556
 3663SOL    HW211046   0.836   3.792   1.926  0.9722  0.0321  1.1818
 3664SOL     OW11047   1.607   1.066   1.921 -0.4361  0.1128  0.6798
 3664SOL    HW111048   1.612   1.022   2.006  2.2606 -2.3343 -0.5791
 3664SOL    HW211049   1.554   1.007   1.867  2.2884 -1.2066 -0.7239
 3665SOL     OW11050   4.673   3.323   3.180  0.4729 -0.0570  0.3068
 3665SOL    HW111051   4.601   3.302   3.121  1.1875  3.0395 -1.9196
 3665SOL    HW211052   4.752   3.291   3.136  0.8114  0.1043  0.7732
 3666SOL     OW11053   3.852   1.506   2.830 -0.2461  1.0129 -0.4351
 3666SOL    HW111054   3.922   1.443   2.848 -0.4159  0.3745 -1.8023
 3666SOL    HW211055   3.837   1.551   2.913  1.7570  1.1512 -0.1090
 3667SOL     OW11056   2.656   4.068   4.771 -0.3170  0.0874 -0.2622
 3667SOL    HW111057   2.580   4.010   4.761 -0.2186 -0.0056 -0.4765
 3667SOL    HW211058   2.629   4.131   4.837 -0.5122 -0.0611 -0.1974
 3668SOL     OW11059   3.831   3.898   3.105 -0.1591 -0.1429  0.7048
 3668SOL    HW111060   3.782   3.972   3.141  0.7096  0.2292  1.1572
 3668SOL    HW211061   3.795   3.886   3.017 -1.1522  0.0229  1.0793
 3669SOL     OW11062   4.308   0.738   4.285 -0.0686  0.2018  0.4938
 3669SOL    HW111063   4.321   0.833   4.281  0.3878  0.3819  3.8311
 3669SOL    HW211064   4.388   0.701   4.249  0.3964  1.1142  0.5577
 3670SOL     OW11065   1.757   0.103   2.284 -0.0695  0.6876  0.7346
 3670SOL    HW111066   1.690   0.039   2.306  0.9127 -0.6632 -0.0642
 3670SOL    HW211067   1.768   0.096   2.190  1.7822  0.2009  0.9295
 3671SOL     OW11068   1.543   4.296   2.483 -0.2386  0.7806 -0.0757
 3671SOL    HW111069   1.518   4.272   2.394 -0.9517 -1.0195  0.5541
 3671SOL    HW211070   1.618   4.241   2.503  0.7473  2.1181  0.0076
 3672SOL     OW11071   1.847   4.053   2.678 -0.0623  0.8807  0.4425
 3672SOL    HW111072   1.807   3.966   2.677 -0.6987  1.0799 -2.6682
 3672SOL    HW211073   1.826   4.089   2.764 -3.2882 -0.5145  0.3813
 3673SOL     OW11074   3.767   2.152   4.180  0.1352  0.2606  0.3076
 3673SOL    HW111075   3.816   2.228   4.146  0.7789  0.1207  0.9083
 3673SOL    HW211076   3.700   2.136   4.113  0.1135  1.2315  0.0702
 3674SOL     OW11077   0.813   0.573   1.685 -0.7537 -0.1502 -0.7557
 3674SOL    HW111078   0.846   0.502   1.740  0.6573  0.3187 -0.9443
 3674SOL    HW211079   0.729   0.598   1.724 -1.1759 -1.7763 -0.5728
 3675SOL     OW11080   4.654   4.026   3.760  0.3364 -0.3938 -0.2085
 3675SOL    HW111081   4.627   3.999   3.848  0.0890  0.3682 -0.0396
 3675SOL    HW211082   4.749   4.035   3.766  0.1583  1.6765  0.6055
 3676SOL     OW11083   3.342   0.255   3.377  0.5846  0.3669  0.5015
 3676SOL    HW111084   3.349   0.275   3.470  1.6016  1.4713  0.2082
 3676SOL    HW211085   3.251   0.272   3.356  0.2708 -0.1842  1.3519
 3677SOL     OW11086   0.440   4.078   4.219 -0.0362 -0.4382 -0.3981
 3677SOL    HW111087   0.486   4.091   4.136  2.5105 -0.5071  0.8992
 3677SOL    HW211088   0.442   3.983   4.232 -0.0816 -0.4022 -0.1147
 3678SOL     OW11089   1.649   1.365   0.340  0.0840 -0.5189 -0.1420
 3678SOL    HW111090   1.713   1.389   0.273  2.3304 -5.9770 -0.4713
 3678SOL    HW211091   1.690   1.389   0.423  0.1180  0.6165 -0.4652
 3679SOL     OW11092   4.025   2.061   4.357  0.0750  0.0272 -0.4993
 3679SOL    HW111093   3.931   2.080   4.356 -0.3952 -1.9089  0.8333
 3679SOL    HW211094   4.051   2.062   4.265 -1.5760 -0.7847 -1.0209
 3680SOL     OW11095   1.311   2.239   3.199 -0.3040 -0.5202 -0.6906
 3680SOL    HW111096   1.336   2.161   3.248  0.2265  1.2048  2.0130
 3680SOL    HW211097   1.367   2.308   3.235 -1.8535  1.4180 -1.8373
 3681SOL     OW11098   3.377   0.048   0.452 -0.9154  0.5385 -0.3088
 3681SOL    HW111099   3.431  -0.032   0.455  0.2859  1.3442  1.0537
 3681SOL    HW211100   3.431   0.111   0.404 -1.2392  0.9740 -0.1026
 3682SOL     OW11101   3.793   3.679   1.316  0.2295  0.7677 -0.5185
 3682SOL    HW111102   3.761   3.627   1.390 -0.8869  1.7083 -0.2972
 3682SOL    HW211103   3.756   3.636   1.239 -0.1057  0.8249 -0.3915
 3683SOL     OW11104   2.003   3.011   3.128  0.1001  0.1253 -0.0339
 3683SOL    HW111105   2.082   3.015   3.182  0.3475 -0.7374 -0.3049
 3683SOL    HW211106   2.013   3.081   3.064  0.9164 -0.3124 -0.4053
 3684SOL     OW11107   3.292   1.905   0.981  0.1888  0.5285  0.3377
 3684SOL    HW111108   3.320   1.981   1.032 -1.8598  0.2996  1.9446
 3684SOL    HW211109   3.198   1.919   0.967  0.2035 -0.6677 -1.2109
 3685SOL     OW11110   3.495   1.952   1.239  0.1614 -0.3574  0.4233
 3685SOL    HW111111   3.500   1.866   1.281  2.0959  0.8416  2.9483
 3685SOL    HW211112   3.408   1.985   1.260 -0.9775 -1.9899 -1.3993
 3686SOL     OW11113   2.230   2.853   2.909 -0.2361 -0.3133  0.5036
 3686SOL    HW111114   2.148   2.806   2.920 -0.0139 -0.7184  0.4487
 3686SOL    HW211115   2.221   2.930   2.965 -1.0845  0.2248 -0.3346
 3687SOL     OW11116   1.181   1.771   0.542  0.0143  0.0989  0.2669
 3687SOL    HW111117   1.178   1.806   0.631  1.6725 -0.8177  0.7296
 3687SOL    HW211118   1.195   1.847   0.487 -0.6643  0.6385  0.8196
 3688SOL     OW11119   2.999   0.342   1.223 -0.0687 -0.2311  0.0490
 3688SOL    HW111120   2.954   0.265   1.190  0.8282 -0.2541 -1.1794
 3688SOL    HW211121   3.054   0.372   1.150  1.7675 -0.1093  1.3905
 3689SOL     OW11122   0.367   0.117   3.016 -0.1271 -0.6875  0.4574
 3689SOL    HW111123   0.294   0.119   2.955 -0.1794  0.2576  0.5374
 3689SOL    HW211124   0.364   0.202   3.061  0.8496 -0.7418  0.6521
 3690SOL     OW11125   2.055   2.732   4.749 -0.5397 -0.4921  0.1025
 3690SOL    HW111126   2.080   2.760   4.837 -1.4483  0.0553  0.1963
 3690SOL    HW211127   2.110   2.656   4.731 -1.3622 -1.4888  1.7023
 3691SOL     OW11128   4.684   1.533   2.998 -0.5443  0.1013  0.3402
 3691SOL    HW111129   4.650   1.449   2.968 -0.5639  0.5814 -1.0836
 3691SOL    HW211130   4.749   1.557   2.932 -0.9021  1.4343  0.4361
 3692SOL     OW11131   2.575   0.223   0.076  0.4763 -0.1771  0.2840
 3692SOL    HW111132   2.668   0.206   0.088  0.7185 -0.8825 -2.1186
 3692SOL    HW211133   2.532   0.142   0.105  0.6679 -0.1997  0.5093
 3693SOL     OW11134   1.189   2.399   0.760  0.2917  0.6465  0.1725
 3693SOL    HW111135   1.281   2.419   0.777  0.5140  0.5354 -0.8089
 3693SOL    HW211136   1.174   2.433   0.671 -0.2439 -0.5257 -0.2038
 3694SOL     OW11137   2.019   0.553   4.196 -0.2956 -0.0192 -0.6645
 3694SOL    HW111138   2.095   0.495   4.204  0.6134  1.2315  0.1366
 3694SOL    HW211139   2.048   0.624   4.138 -1.0890  0.1141 -0.9110
 3695SOL     OW11140   1.885   0.828   2.886  0.2555  0.1384  0.4420
 3695SOL    HW111141   1.952   0.895   2.871 -0.7723  1.3529  1.0598
 3695SOL    HW211142   1.880   0.820   2.981 -1.1433  0.8083  0.4477
 3696SOL     OW11143   1.183   2.729   0.688  0.1772 -0.7914 -0.1766
 3696SOL    HW111144   1.173   2.651   0.634  0.3757 -1.5737  0.9113
 3696SOL    HW211145   1.169   2.700   0.777 -0.9773  0.6586  0.1566
 3697SOL     OW11146   4.476   1.219   1.135  0.1733 -0.0516  0.5300
 3697SOL    HW111147   4.444   1.152   1.075  0.9480 -0.8885  1.0316
 3697SOL    HW211148   4.525   1.280   1.080  0.6385 -0.6587  0.2666
 3698SOL     OW11149   3.239   0.110   1.417 -0.3000  0.0853  0.1976
 3698SOL    HW111150   3.294   0.111   1.339 -2.0211 -2.5981 -1.2183
 3698SOL    HW211151   3.200   0.197   1.420  1.3082  0.8815 -0.7859
 3699SOL     OW11152   1.978   0.593   2.496 -0.5570  0.1228  0.6837
 3699SOL    HW111153   1.949   0.548   2.417  0.7314 -0.5758  0.5825
 3699SOL    HW211154   1.927   0.553   2.567 -0.6697 -0.2570  0.3872
 3700SOL     OW11155   0.059   3.069   3.183 -0.3327  0.1297  0.5928
 3700SOL    HW111156   0.084   3.034   3.269  0.3532  0.7999  0.6769
 3700SOL    HW211157   0.137   3.058   3.129 -0.8243 -0.4619 -0.0075
 3701SOL     OW11158   2.806   2.960   0.663  0.1070 -0.8648 -0.0558
 3701SOL    HW111159   2.803   2.996   0.752  0.7899 -1.2258  0.1205
 3701SOL    HW211160   2.885   2.996   0.624  0.2802 -1.3948 -0.2098
 3702SOL     OW11161   2.634   2.592   1.975  0.2925  0.0619  0.2744
 3702SOL    HW111162   2.652   2.546   1.893 -1.6361 -0.9172  0.3358
 3702SOL    HW211163   2.629   2.685   1.951 -1.0297 -0.2821 -0.9122
 3703SOL     OW11164   2.658   2.419   2.215  0.0659  0.1652 -0.2011
 3703SOL    HW111165   2.664   2.463   2.130  1.8450 -0.6011 -0.5164
 3703SOL    HW211166   2.671   2.489   2.279  1.5327  0.3500 -0.6641
 3704SOL     OW11167   1.777   4.687   4.922 -0.4516  0.1496 -0.1152
 3704SOL    HW111168   1.693   4.655   4.955  0.2920 -1.5135  0.2795
 3704SOL    HW211169   1.786   4.774   4.961 -0.4581 -0.9972  2.7273
 3705SOL     OW11170   4.673   4.137   2.663  0.4091 -0.9246 -0.5381
 3705SOL    HW111171   4.729   4.187   2.723 -0.8673  1.4627 -1.2067
 3705SOL    HW211172   4.622   4.080   2.721  2.1703 -1.7784  0.2293
 3706SOL     OW11173   3.397   3.741   0.694  0.2241 -0.5483  0.2490
 3706SOL    HW111174   3.430   3.695   0.616  0.1654 -0.0048 -0.1009
 3706SOL    HW211175   3.317   3.784   0.664  0.9144  0.7718  0.2523
 3707SOL     OW11176   0.738   1.395   1.584 -0.5106 -0.1777 -0.0645
 3707SOL    HW111177   0.644   1.410   1.593 -1.0424 -2.1550 -1.5596
 3707SOL    HW211178   0.760   1.432   1.499  0.1188  0.4868  0.3851
 3708SOL     OW11179   2.432   3.255   1.474 -0.7704  0.5831 -0.5943
 3708SOL    HW111180   2.489   3.210   1.536  0.2769 -0.1857 -2.0381
 3708SOL    HW211181   2.357   3.283   1.526 -1.2754 -2.4118  0.5296
 3709SOL     OW11182   0.668   2.498   0.944  0.1443 -0.4373  0.0279
 3709SOL    HW111183   0.662   2.568   0.879 -0.2275 -1.3082 -0.9049
 3709SOL    HW211184   0.619   2.531   1.019  1.0252  0.8062  0.0798
 3710SOL     OW11185   0.733   2.383   4.839 -0.0907 -0.5916 -0.1599
 3710SOL    HW111186   0.799   2.450   4.856 -0.5859 -0.4976  1.5422
 3710SOL    HW211187   0.654   2.416   4.881 -0.6868 -1.6410 -0.4238
 3711SOL     OW11188   2.507   1.127   4.063  0.1106  0.0502 -0.1006
 3711SOL    HW111189   2.432   1.167   4.107 -0.6200  0.4779 -1.6548
 3711SOL    HW211190   2.574   1.196   4.064  0.1194  0.0391  0.3631
 3712SOL     OW11191   3.847   1.125   2.093 -0.0585  0.2694  0.2560
 3712SOL    HW111192   3.795   1.173   2.028  0.2775  1.9565  1.1536
 3712SOL    HW211193   3.782   1.088   2.153 -0.3115  0.3016  0.0039
 3713SOL     OW11194   1.204   3.146   1.328  0.0966  0.4471  0.4589
 3713SOL    HW111195   1.153   3.087   1.383 -0.1829 -0.0549 -0.3174
 3713SOL    HW211196   1.238   3.212   1.388 -1.2586  0.6496  1.0375
 3714SOL     OW11197   0.603   0.863   3.426 -0.5120 -0.3102  0.4472
 3714SOL    HW111198   0.539   0.849   3.496  1.2496 -1.4335  1.9335
 3714SOL    HW211199   0.567   0.815   3.351 -2.4397  0.9125  0.5183
 3715SOL     OW11200   1.914   1.698   2.527  0.4763  0.3090 -0.0342
 3715SOL    HW111201   1.865   1.695   2.609 -1.4240  0.1139 -1.1196
 3715SOL    HW211202   1.879   1.774   2.480  0.1386 -0.6828 -1.4628
 3716SOL     OW11203   1.207   3.753   3.465 -0.2876 -0.2258  0.3153
 3716SOL    HW111204   1.186   3.787   3.378 -2.9417 -2.0447  0.1308
 3716SOL    HW211205   1.274   3.687   3.449  0.0515  0.2263 -0.1809
 3717SOL     OW11206   1.291   3.979   4.270  0.0594  0.3057  0.1282
 3717SOL    HW111207   1.278   3.909   4.205  0.9715 -1.8350  2.0836
 3717SOL    HW211208   1.203   4.011   4.289 -0.5691 -1.3706  0.2211
 3718SOL     OW11209   3.443   0.663   0.387  0.6554 -0.0067  0.5419
 3718SOL    HW111210   3.518   0.605   0.400  0.1489 -1.0416 -0.8921
 3718SOL    HW211211   3.448   0.726   0.459  1.5329 -1.5141  1.8589
 3719SOL     OW11212   1.115   2.424   2.687 -0.2660 -0.4069  0.0257
 3719SOL    HW111213   1.081   2.361   2.623 -1.0827 -0.6723  0.6987
 3719SOL    HW211214   1.076   2.397   2.770  1.3622 -0.5262  0.7963
 3720SOL     OW11215   0.322   2.326   2.767 -0.3010 -0.4032  0.0847
 3720SOL    HW111216   0.235   2.338   2.729  0.0819  2.0444 -0.2134
 3720SOL    HW211217   0.367   2.269   2.705 -1.0560 -0.0155 -0.8597
 3721SOL     OW11218   0.654   3.871   0.728 -0.2609 -0.4556  0.0045
 3721SOL    HW111219   0.583   3.817   0.694 -0.1568  0.4208 -1.7089
 3721SOL    HW211220   0.696   3.907   0.650  1.0844  0.2997  1.0338
 3722SOL     OW11221   2.061   0.658   1.640 -0.5362  0.4684  0.1426
 3722SOL    HW111222   2.057   0.693   1.551  1.5331 -0.0666 -0.2240
 3722SOL    HW211223   2.143   0.608   1.642 -0.1632  1.0643  2.5548
 3723SOL     OW11224   3.289   0.792   1.053 -0.9355 -0.1967  0.2086
 3723SOL    HW111225   3.265   0.707   1.017 -2.8912  1.1630 -1.9897
 3723SOL    HW211226   3.233   0.802   1.130  0.2683 -1.3906  1.2901
 3724SOL     OW11227   2.959   2.367   3.726 -1.0773 -0.3128 -0.0946
 3724SOL    HW111228   2.897   2.412   3.667  0.0628  1.6100  0.0775
 3724SOL    HW211229   3.021   2.325   3.667 -1.0483 -0.0158 -0.2812
 3725SOL     OW11230   0.550   0.737   3.188 -0.5040  0.2340 -0.0127
 3725SOL    HW111231   0.484   0.669   3.201 -0.7499  0.3344 -0.6944
 3725SOL    HW211232   0.542   0.761   3.096 -0.5638  1.3388  0.2686
 3726SOL     OW11233   3.858   1.212   0.159  0.2189  0.3897  0.2926
 3726SOL    HW111234   3.795   1.234   0.091 -0.4872 -0.9840  0.4740
 3726SOL    HW211235   3.859   1.116   0.162  1.1518  0.4036  1.3668
 3727SOL     OW11236   1.692   1.870   1.303  0.0387 -0.2497 -0.2134
 3727SOL    HW111237   1.606   1.854   1.264  0.1894 -0.4598 -0.4636
 3727SOL    HW211238   1.683   1.955   1.346 -0.1925 -0.1064 -0.5365
 3728SOL     OW11239   1.135   3.111   3.097  0.2984 -0.6030 -0.1883
 3728SOL    HW111240   1.099   3.025   3.075  0.8069 -0.9431  0.2584
 3728SOL    HW211241   1.226   3.092   3.123  0.7456  0.2041 -1.1225
 3729SOL     OW11242   3.566   3.886   1.417  0.0677 -0.1841  0.0985
 3729SOL    HW111243   3.490   3.901   1.361 -0.4146 -0.9589  0.5363
 3729SOL    HW211244   3.614   3.816   1.374  0.3216  0.0317  0.0317
 3730SOL     OW11245   1.912   3.140   1.540 -0.2307  0.2181 -0.5129
 3730SOL    HW111246   2.006   3.120   1.547 -0.7407 -1.8135  3.1881
 3730SOL    HW211247   1.875   3.064   1.495 -0.2353  0.5471 -1.0682
 3731SOL     OW11248   3.166   2.873   1.888 -0.3866 -0.3929 -0.2684
 3731SOL    HW111249   3.227   2.841   1.822 -0.2581 -0.0070 -0.3416
 3731SOL    HW211250   3.215   2.868   1.970 -0.4171 -0.5255 -0.2592
 3732SOL     OW11251   2.480   3.504   3.441 -0.5442  0.4466  0.4135
 3732SOL    HW111252   2.551   3.567   3.449 -0.4892  0.4062  0.2505
 3732SOL    HW211253   2.479   3.458   3.525  0.0600 -0.0116  0.1786
 3733SOL     OW11254   3.698   1.955   1.033 -0.2670 -0.3692 -0.3357
 3733SOL    HW111255   3.741   2.039   1.049 -0.4436 -0.2313 -0.5765
 3733SOL    HW211256   3.625   1.954   1.094  1.0908 -1.3910  1.3779
 3734SOL     OW11257   3.716   3.284   3.389 -0.6578  0.4378  0.6480
 3734SOL    HW111258   3.797   3.292   3.440 -1.0431 -1.5468  1.6881
 3734SOL    HW211259   3.696   3.373   3.361  1.2437  1.1413  1.3658
 3735SOL     OW11260   1.646   4.615   1.278  0.1132  0.4908  0.1844
 3735SOL    HW111261   1.686   4.529   1.263 -1.3078  0.1355 -1.9731
 3735SOL    HW211262   1.600   4.605   1.361 -0.0865 -0.8679 -0.0678
 3736SOL     OW11263   4.216   1.239   3.279 -0.6181 -0.1144 -0.2457
 3736SOL    HW111264   4.196   1.211   3.189  0.3227  1.6415 -1.0354
 3736SOL    HW211265   4.307   1.266   3.276 -0.1939 -1.1874  1.5750
 3737SOL     OW11266   1.372   4.728   3.645  1.1311  0.2833  0.2393
 3737SOL    HW111267   1.430   4.694   3.713  0.4171 -1.3402  0.0905
 3737SOL    HW211268   1.421   4.801   3.606  1.8035  0.8733  2.0664
 3738SOL     OW11269   0.128   3.076   1.241  0.4908  0.2798  0.0571
 3738SOL    HW111270   0.075   3.028   1.177  1.4492 -0.7797  0.0419
 3738SOL    HW211271   0.119   3.026   1.322  1.2635  0.2243  0.1152
 3739SOL     OW11272   3.018   1.255   1.039  0.4496  0.0370  0.4968
 3739SOL    HW111273   2.968   1.200   1.099  0.7912  0.3902  1.1111
 3739SOL    HW211274   2.963   1.333   1.026  0.3510 -0.0640  0.3095
 3740SOL     OW11275   0.136   0.916   3.724  0.6443  0.0447 -0.0999
 3740SOL    HW111276   0.099   0.945   3.807  0.0838 -2.2832  0.5493
 3740SOL    HW211277   0.079   0.844   3.696  0.4048  1.1826 -2.8845
 3741SOL     OW11278   4.411   2.308   1.234  0.7325  0.1978 -0.4258
 3741SOL    HW111279   4.336   2.349   1.192  1.0240  0.9495 -0.2374
 3741SOL    HW211280   4.412   2.219   1.200 -0.2976  0.1467 -0.3493
 3742SOL     OW11281   3.164   3.224   1.961 -0.2582  0.3907  0.0830
 3742SOL    HW111282   3.101   3.163   2.000  0.8161 -0.4474  0.5571
 3742SOL    HW211283   3.135   3.233   1.870  0.2988 -1.8889 -0.3775
 3743SOL     OW11284   0.109   3.316   1.894  0.0025  0.7511 -0.2605
 3743SOL    HW111285   0.099   3.244   1.957  1.5701 -0.2250 -1.0726
 3743SOL    HW211286   0.029   3.368   1.905 -0.6881 -0.5083  1.1014
 3744SOL     OW11287   1.724   2.089   0.156  0.1921 -0.4171  0.4388
 3744SOL    HW111288   1.787   2.154   0.125 -1.1376 -0.4042 -2.6307
 3744SOL    HW211289   1.733   2.016   0.094 -1.3572 -1.3085  1.2024
 3745SOL     OW11290   3.760   1.262   3.968  0.4058 -0.0260  0.3659
 3745SOL    HW111291   3.807   1.180   3.982  1.6356  0.7038  0.7145
 3745SOL    HW211292   3.671   1.235   3.945  0.8813 -1.4581  0.0574
 3746SOL     OW11293   2.826   2.422   0.259 -0.1517 -0.1884 -0.4634
 3746SOL    HW111294   2.826   2.328   0.242  2.1467 -0.1047 -1.1794
 3746SOL    HW211295   2.861   2.431   0.347 -0.5659  0.0001 -0.3151
 3747SOL     OW11296   1.967   3.817   2.210  0.1663  0.3108 -0.1404
 3747SOL    HW111297   1.979   3.873   2.286 -1.1227 -0.1937  0.4628
 3747SOL    HW211298   1.956   3.877   2.136 -2.1011  0.9447  0.6241
 3748SOL     OW11299   1.699   3.507   2.394 -0.3656 -0.0263  0.2699
 3748SOL    HW111300   1.701   3.425   2.345  2.5995  0.2884 -0.3288
 3748SOL    HW211301   1.619   3.551   2.365  0.0791 -0.9134 -2.5107
 3749SOL     OW11302   4.719   1.007   4.638 -0.3269  0.1862  0.1650
 3749SOL    HW111303   4.812   1.005   4.616 -0.8517 -2.0238 -2.3911
 3749SOL    HW211304   4.708   0.937   4.703 -0.5613 -1.6944 -1.7807
 3750SOL     OW11305   3.092   2.107   4.565 -0.0344  0.3593 -0.2115
 3750SOL    HW111306   3.158   2.177   4.572 -0.3470  0.8579 -1.7890
 3750SOL    HW211307   3.143   2.026   4.563  0.4062  0.6111  0.4383
 3751SOL     OW11308   4.521   2.201   1.449  0.2396 -0.9385  0.0676
 3751SOL    HW111309   4.466   2.242   1.381 -1.2798 -2.3525  0.3756
 3751SOL    HW211310   4.611   2.220   1.422 -0.2706  3.2625  0.6237
 3752SOL     OW11311   0.327   4.924   0.688  0.4381  1.0196  0.7602
 3752SOL    HW111312   0.327   4.973   0.770 -0.9184  1.1440  0.7076
 3752SOL    HW211313   0.410   4.876   0.688  1.0970  2.1311  1.5219
 3753SOL     OW11314   1.576   2.476   0.473 -0.4091 -0.1693  0.0282
 3753SOL    HW111315   1.517   2.524   0.415  0.6643 -0.9403 -1.7910
 3753SOL    HW211316   1.591   2.536   0.546  0.6841  2.2516 -2.0104
 3754SOL     OW11317   0.085   4.689   2.676 -0.1007  0.4410 -0.1205
 3754SOL    HW111318   0.128   4.717   2.595 -1.2786  1.8774 -0.2892
 3754SOL    HW211319   0.114   4.752   2.742 -1.5056  1.1096 -0.1199
 3755SOL     OW11320   2.952   1.467   2.237 -0.5405  0.1280  0.0762
 3755SOL    HW111321   2.860   1.460   2.259 -0.4363  0.8277  0.7832
 3755SOL    HW211322   2.964   1.409   2.162 -1.6157  0.2586 -0.2045
 3756SOL     OW11323   0.879   3.637   2.716 -0.5578 -0.1260 -0.2340
 3756SOL    HW111324   0.861   3.729   2.694  0.8431 -0.0165 -1.0727
 3756SOL    HW211325   0.944   3.642   2.786 -0.2483 -0.4884 -0.4994
 3757SOL     OW11326   4.699   1.229   2.979 -0.8392  0.3453 -0.1404
 3757SOL    HW111327   4.742   1.196   2.901 -2.6656  0.0267 -1.0664
 3757SOL    HW211328   4.725   1.168   3.049 -0.4786 -0.3171 -0.8394
 3758SOL     OW11329   4.631   3.641   1.775 -0.0206 -0.1071 -0.4222
 3758SOL    HW111330   4.720   3.668   1.751 -0.0124  0.5432  0.2877
 3758SOL    HW211331   4.631   3.643   1.870 -0.3439 -1.6535 -0.3704
 3759SOL     OW11332   0.254   4.817   1.587 -0.3217  0.1502 -0.8109
 3759SOL    HW111333   0.203   4.876   1.643 -0.4303  0.5486 -1.3210
 3759SOL    HW211334   0.189   4.779   1.527 -0.3452 -0.9067 -0.1478
 3760SOL     OW11335   3.115   2.666   0.578  0.2368  0.2825  0.2345
 3760SOL    HW111336   3.098   2.740   0.637  1.4151  1.0166 -0.2864
 3760SOL    HW211337   3.142   2.708   0.496 -0.0873 -0.7299 -0.3991
 3761SOL     OW11338   0.276   1.038   3.426  0.5297 -0.2364 -0.2499
 3761SOL    HW111339   0.279   1.133   3.427 -0.3198 -0.1893 -0.8229
 3761SOL    HW211340   0.367   1.011   3.422  0.8665  0.5098  1.4364
 3762SOL     OW11341   4.574   2.744   2.044 -0.0112 -0.1085  0.8464
 3762SOL    HW111342   4.594   2.810   1.979 -1.2126  0.4793  1.0535
 3762SOL    HW211343   4.566   2.663   1.995 -0.7770  0.3058  0.2796
 3763SOL     OW11344   4.473   0.716   3.537 -0.3003  0.0620  0.4104
 3763SOL    HW111345   4.569   0.720   3.530 -0.2576  1.3171  1.3628
 3763SOL    HW211346   4.442   0.769   3.464 -0.3409 -1.3715 -0.6695
 3764SOL     OW11347   0.587   2.812   0.993 -0.1387 -0.1377 -0.1180
 3764SOL    HW111348   0.519   2.864   1.036 -0.5170 -0.7914  0.0930
 3764SOL    HW211349   0.612   2.864   0.917  0.9482  1.3084  1.1592
 3765SOL     OW11350   4.297   4.112   1.522  0.2249 -0.3788  0.7360
 3765SOL    HW111351   4.221   4.144   1.474 -0.8883 -2.0267  1.2905
 3765SOL    HW211352   4.282   4.140   1.612  1.1985  0.8150  0.5461
 3766SOL     OW11353   1.692   0.055   2.019  0.2025 -0.2984  0.0926
 3766SOL    HW111354   1.639   0.084   1.945 -1.2643 -1.8165  0.4783
 3766SOL    HW211355   1.757  -0.004   1.981  0.9730  0.7505 -0.2526
 3767SOL     OW11356   3.855   2.629   1.953 -0.3117 -0.2795 -0.6780
 3767SOL    HW111357   3.805   2.554   1.986 -0.5803  1.7416  4.4449
 3767SOL    HW211358   3.790   2.697   1.939  0.3788  0.4479 -0.4091
 3768SOL     OW11359   2.774   4.811   4.453 -0.0150 -0.3265 -0.5988
 3768SOL    HW111360   2.718   4.885   4.429 -0.0435 -0.1662 -0.0494
 3768SOL    HW211361   2.829   4.845   4.523  0.0438 -0.8002 -0.4145
 3769SOL     OW11362   1.255   3.659   0.420 -0.2715  0.7614 -0.1613
 3769SOL    HW111363   1.348   3.673   0.435  0.4232 -2.5275 -0.6013
 3769SOL    HW211364   1.249   3.631   0.329 -1.3014 -1.1472  0.4211
 3770SOL     OW11365   0.084   1.697   4.400 -0.1558 -0.1452 -0.3841
 3770SOL    HW111366   0.060   1.733   4.485 -0.9744 -0.3811 -0.5103
 3770SOL    HW211367   0.180   1.692   4.403 -0.0207  1.7465 -0.2521
 3771SOL     OW11368   3.161   1.051   3.594  0.0903 -0.1110  0.0460
 3771SOL    HW111369   3.183   0.962   3.565  3.0865  0.4775  0.1925
 3771SOL    HW211370   3.138   1.097   3.514  0.6198 -0.4784 -0.3232
 3772SOL     OW11371   2.471   4.025   4.073 -0.1094  0.1998 -0.1580
 3772SOL    HW111372   2.420   4.017   3.992  0.5532 -1.2249 -0.4641
 3772SOL    HW211373   2.549   4.073   4.048 -0.5424  0.9871 -0.0375
 3773SOL     OW11374   3.148   1.526   4.073 -0.2596 -0.1375 -0.5177
 3773SOL    HW111375   3.209   1.597   4.053 -1.3263  0.7299 -0.7508
 3773SOL    HW211376   3.150   1.519   4.169 -0.7173  0.7383 -0.4330
 3774SOL     OW11377   0.114   1.888   3.569 -0.2172 -0.6836  0.5431
 3774SOL    HW111378   0.097   1.940   3.490  1.0408 -1.0319  0.0105
 3774SOL    HW211379   0.063   1.931   3.638  0.9430  1.4562  0.1925
 3775SOL     OW11380   3.507   0.424   4.687 -0.2291  0.4254 -0.0943
 3775SOL    HW111381   3.533   0.467   4.605  2.5937  0.2351  0.5922
 3775SOL    HW211382   3.525   0.331   4.672  0.2450  0.3805  0.6846
 3776SOL     OW11383   2.029   1.191   4.767 -0.7412  0.6091  0.4084
 3776SOL    HW111384   2.112   1.153   4.737 -0.2994  1.5281  0.4156
 3776SOL    HW211385   2.043   1.286   4.761 -0.7193  0.8630  3.2802
 3777SOL     OW11386   4.904   1.851   2.281 -0.2670 -0.0362 -0.0084
 3777SOL    HW111387   4.969   1.781   2.272 -0.1202  0.3322 -2.4773
 3777SOL    HW211388   4.953   1.925   2.316  0.4766 -0.0195 -1.0560
 3778SOL     OW11389   3.097   4.087   2.923 -0.0885 -0.2348  0.0692
 3778SOL    HW111390   3.007   4.069   2.897 -0.3723  1.1857 -0.0003
 3778SOL    HW211391   3.107   4.045   3.008 -0.9730  0.0459  0.3099
 3779SOL     OW11392   0.576   2.277   3.216  0.0314  0.6307  0.3569
 3779SOL    HW111393   0.563   2.369   3.239  1.1532  0.6919  0.8567
 3779SOL    HW211394   0.650   2.250   3.272 -0.3021 -0.5714  0.2268
 3780SOL     OW11395   2.200   0.149   1.487  0.6669 -0.5672 -0.1016
 3780SOL    HW111396   2.196   0.241   1.464  0.0363 -0.4628  0.4106
 3780SOL    HW211397   2.260   0.111   1.422 -0.8885 -0.2618 -1.7901
 3781SOL     OW11398   4.108   4.284   2.027  0.0222 -0.3180  0.1103
 3781SOL    HW111399   4.174   4.216   2.015 -0.5217 -0.9436  0.5349
 3781SOL    HW211400   4.123   4.345   1.956  1.3367 -0.2022  0.4573
 3782SOL     OW11401   4.605   1.189   4.161 -0.4638 -0.2856 -0.0313
 3782SOL    HW111402   4.602   1.207   4.255 -3.1897 -1.5822  0.2100
 3782SOL    HW211403   4.693   1.153   4.146  0.1093  0.1738  1.9436
 3783SOL     OW11404   3.637   3.044   0.116  0.0348  0.1877  0.4556
 3783SOL    HW111405   3.655   2.952   0.135 -1.7724  0.2020  2.6384
 3783SOL    HW211406   3.574   3.042   0.044  1.0770 -0.1873 -0.4739
 3784SOL     OW11407   1.138   2.586   4.002  0.5496  0.4863 -0.2769
 3784SOL    HW111408   1.146   2.529   4.079  1.1024  0.2776 -0.4861
 3784SOL    HW211409   1.044   2.590   3.985  0.4140  0.6053  0.4628
 3785SOL     OW11410   2.763   0.060   3.095  0.0282 -0.2164 -0.1000
 3785SOL    HW111411   2.747   0.004   3.171  0.1222  1.4286  1.2087
 3785SOL    HW211412   2.849   0.031   3.062  0.6642 -0.0367  1.3211
 3786SOL     OW11413   3.482   0.611   3.847  0.2849 -0.5938  0.3650
 3786SOL    HW111414   3.564   0.593   3.893  1.0122  0.8793 -0.2994
 3786SOL    HW211415   3.477   0.544   3.778  1.1513 -0.4298  0.1371
 3787SOL     OW11416   3.717   1.082   2.465 -0.6945 -0.2481  0.2696
 3787SOL    HW111417   3.678   1.168   2.454  1.6420  0.9302  0.6807
 3787SOL    HW211418   3.642   1.022   2.470 -2.3350  1.4666 -1.9413
 3788SOL     OW11419   2.136   3.207   0.508  0.0906  0.3914  0.3173
 3788SOL    HW111420   2.211   3.216   0.568  0.5580 -1.0817  0.0040
 3788SOL    HW211421   2.176   3.191   0.423 -0.5537 -0.9523  0.2420
 3789SOL     OW11422   2.014   4.120   4.379 -0.1587 -0.7105 -0.4977
 3789SOL    HW111423   1.925   4.087   4.376 -1.0778  1.4164  0.9852
 3789SOL    HW211424   2.032   4.149   4.289 -1.5994  0.3478 -0.4683
 3790SOL     OW11425   1.809   4.671   4.224 -0.5297 -0.0254 -0.3516
 3790SOL    HW111426   1.890   4.620   4.232 -1.7763 -2.0898 -0.0922
 3790SOL    HW211427   1.774   4.647   4.138 -1.9741 -0.9457  0.4528
 3791SOL     OW11428   3.746   0.722   0.683 -0.8011 -0.3586  0.8880
 3791SOL    HW111429   3.742   0.818   0.680 -1.2798 -0.3807  0.7687
 3791SOL    HW211430   3.807   0.703   0.755  0.7915  0.0429 -0.2886
 3792SOL     OW11431   2.653   4.052   2.079 -0.4501  0.0516 -0.3624
 3792SOL    HW111432   2.696   3.988   2.023 -1.4257 -0.1588 -0.9065
 3792SOL    HW211433   2.658   4.015   2.167  1.6459  0.6789 -0.1683
 3793SOL     OW11434   4.171   1.302   4.327  0.3125  0.6428 -0.6434
 3793SOL    HW111435   4.078   1.292   4.308  0.5281 -1.6917 -0.8490
 3793SOL    HW211436   4.176   1.379   4.383 -1.9788 -0.0937  0.7432
 3794SOL     OW11437   0.938   3.278   2.216  0.0012  0.0245  0.2053
 3794SOL    HW111438   1.012   3.306   2.270 -0.1650  0.5443  0.1684
 3794SOL    HW211439   0.870   3.342   2.234 -0.0802  0.1598 -0.5712
 3795SOL     OW11440   3.690   3.779   4.755 -0.0911 -0.3295 -0.3679
 3795SOL    HW111441   3.785   3.766   4.759 -0.1658 -0.8098 -0.0521
 3795SOL    HW211442   3.654   3.712   4.813 -0.6386 -0.3037 -0.6668
 3796SOL     OW11443   2.641   2.678   1.648 -0.4167 -0.5712  0.0403
 3796SOL    HW111444   2.650   2.770   1.673 -3.5230 -0.0721 -0.3174
 3796SOL    HW211445   2.556   2.652   1.684 -1.4044 -2.1578 -3.0847
 3797SOL     OW11446   4.057   3.416   2.614  0.0069 -1.0007  0.1638
 3797SOL    HW111447   4.076   3.332   2.573 -1.5081 -1.1836 -0.2199
 3797SOL    HW211448   4.107   3.415   2.695  1.3536 -1.5392 -0.6386
 3798SOL     OW11449   2.064   0.934   0.755  0.4612  0.2317 -0.2884
 3798SOL    HW111450   2.082   1.011   0.809  0.7462 -0.4756  0.6571
 3798SOL    HW211451   1.969   0.929   0.752  0.3339 -1.4066  2.7343
 3799SOL     OW11452   4.718   1.345   1.406 -0.5733  0.3070 -0.5498
 3799SOL    HW111453   4.673   1.429   1.401  1.1937  1.5304  1.9888
 3799SOL    HW211454   4.801   1.359   1.359  0.1367  0.3235  0.6679
 3800SOL     OW11455   4.270   0.673   1.277  0.0350 -0.1780  0.0106
 3800SOL    HW111456   4.220   0.675   1.359  0.7797  1.7163  0.4854
 3800SOL    HW211457   4.240   0.594   1.232 -2.9769  0.5452  0.5014
 3801SOL     OW11458   0.164   4.120   1.288  0.4344 -0.9183  0.7258
 3801SOL    HW111459   0.138   4.070   1.366 -0.7085 -1.8895 -0.2393
 3801SOL    HW211460   0.145   4.211   1.311  2.1187 -0.9275  2.3458
 3802SOL     OW11461   3.512   4.230   1.246  0.3320 -0.1448  0.4774
 3802SOL    HW111462   3.427   4.222   1.203 -0.3280  0.8816  1.5460
 3802SOL    HW211463   3.491   4.240   1.339  1.6686 -0.9230  0.8821
 3803SOL     OW11464   1.826   2.789   3.473 -0.3126  0.6414 -0.1788
 3803SOL    HW111465   1.825   2.718   3.408 -2.2753  1.3329 -0.9659
 3803SOL    HW211466   1.890   2.760   3.538  0.9616 -0.5663 -1.8704
 3804SOL     OW11467   3.155   4.413   4.290 -0.4963 -0.4962 -0.0515
 3804SOL    HW111468   3.177   4.458   4.372  0.2448  1.7715 -1.3969
 3804SOL    HW211469   3.059   4.414   4.288 -0.5402 -0.9164  0.9293
 3805SOL     OW11470   3.773   1.049   4.354  0.0038 -0.2917 -0.2480
 3805SOL    HW111471   3.735   1.012   4.434 -0.5703 -0.8772 -0.7753
 3805SOL    HW211472   3.821   1.127   4.383  0.2495 -0.7965  0.7321
 3806SOL     OW11473   3.129   0.404   2.740 -0.0659  0.3921  0.2834
 3806SOL    HW111474   3.215   0.365   2.724  0.0318  0.6479  0.1771
 3806SOL    HW211475   3.067   0.339   2.707  0.1445  1.1889 -1.8351
 3807SOL     OW11476   0.882   2.678   0.413  0.1818 -0.1992 -0.0234
 3807SOL    HW111477   0.826   2.720   0.479  0.6529 -0.8955  0.8329
 3807SOL    HW211478   0.876   2.585   0.432  1.0584 -0.3387 -0.4004
 3808SOL     OW11479   2.053   3.941   3.970 -0.0369  0.0633  0.0722
 3808SOL    HW111480   1.992   3.945   3.896 -0.5626 -1.1565  0.4163
 3808SOL    HW211481   1.999   3.915   4.045  0.7900 -0.3723  0.5343
 3809SOL     OW11482   1.744   1.071   1.619  0.1351  1.4512  0.4900
 3809SOL    HW111483   1.814   1.135   1.606  1.3626  0.5200  2.0670
 3809SOL    HW211484   1.711   1.089   1.707  0.2197  0.1891  0.7957
 3810SOL     OW11485   3.314   3.737   3.763  0.5061  0.2861 -0.0471
 3810SOL    HW111486   3.233   3.729   3.712 -0.1016 -2.3889  1.1732
 3810SOL    HW211487   3.292   3.797   3.834 -0.6061 -0.8201  0.5710
 3811SOL     OW11488   4.837   2.085   1.807 -0.1615  0.0045  0.3111
 3811SOL    HW111489   4.763   2.074   1.748  1.4889 -0.3730 -1.8423
 3811SOL    HW211490   4.811   2.041   1.888 -2.7123  0.9620  0.1010
 3812SOL     OW11491   2.568   2.666   3.973  0.1843  0.0525 -0.1485
 3812SOL    HW111492   2.489   2.651   4.026 -0.8548 -1.6638 -2.0242
 3812SOL    HW211493   2.604   2.578   3.959  1.1994  0.6105 -1.1486
 3813SOL     OW11494   3.006   1.035   0.774 -0.1418  0.1252 -0.4253
 3813SOL    HW111495   2.944   1.107   0.760 -0.8946 -0.7459 -1.7894
 3813SOL    HW211496   3.024   1.037   0.868 -0.9960  1.4037 -0.2646
 3814SOL     OW11497   2.229   3.141   3.008  0.2398 -0.2522  0.3047
 3814SOL    HW111498   2.308   3.087   3.015 -0.5821 -1.4054  0.9057
 3814SOL    HW211499   2.260   3.230   3.025  1.5611 -0.5560 -0.3873
 3815SOL     OW11500   2.850   2.048   4.529 -0.0729  0.4141  0.2216
 3815SOL    HW111501   2.839   2.041   4.434 -0.1329  0.4305  0.2267
 3815SOL    HW211502   2.938   2.085   4.541  0.7018 -1.3549  0.2298
 3816SOL     OW11503   4.945   2.490   0.010 -0.1732 -0.0517  0.2763
 3816SOL    HW111504   4.944   2.513   0.103  1.2270 -0.1118  0.3287
 3816SOL    HW211505   4.971   2.398   0.007  0.3341  0.0987 -0.1920
 3817SOL     OW11506   2.060   2.168   3.875 -0.1627 -0.1358 -0.5223
 3817SOL    HW111507   2.137   2.225   3.874 -0.8898  0.8799 -0.2096
 3817SOL    HW211508   2.077   2.103   3.807  1.5300 -0.6876  0.3674
 3818SOL     OW11509   0.312   4.928   4.020 -0.2537  0.1500  0.0598
 3818SOL    HW111510   0.344   4.911   4.108  1.8682 -0.1772 -0.7236
 3818SOL    HW211511   0.328   5.021   4.005 -2.0177  0.5667  0.5178
 3819SOL     OW11512   0.659   0.710   1.064 -0.2577  0.5705  0.1988
 3819SOL    HW111513   0.668   0.656   1.142  1.9293  1.4582  0.6544
 3819SOL    HW211514   0.612   0.788   1.094 -2.6479 -0.6160 -0.2647
 3820SOL     OW11515   3.707   2.023   4.585 -0.7873  0.0493  0.0172
 3820SOL    HW111516   3.636   1.967   4.617 -0.6340 -0.3149 -0.2653
 3820SOL    HW211517   3.783   1.998   4.637 -1.0514  1.0469  0.9217
 3821SOL     OW11518   3.516   2.027   3.463 -0.0956  0.9046  0.1351
 3821SOL    HW111519   3.428   2.045   3.499 -0.4685  0.2573 -0.4311
 3821SOL    HW211520   3.514   1.934   3.441  1.2213  0.5221  1.4361
 3822SOL     OW11521   3.013   2.161   1.045 -0.3292 -0.0910  0.0741
 3822SOL    HW111522   3.104   2.179   1.067 -0.1998  0.3190 -0.7388
 3822SOL    HW211523   3.018   2.096   0.974 -0.6784 -0.3547  0.2887
 3823SOL     OW11524   2.265   0.557   2.571  0.0221 -0.0494 -0.2185
 3823SOL    HW111525   2.284   0.650   2.563 -2.8602  0.5159 -1.5720
 3823SOL    HW211526   2.194   0.541   2.509 -1.6116 -2.5288  2.0895
 3824SOL     OW11527   3.757   1.602   3.645  0.3480 -0.1902  0.0666
 3824SOL    HW111528   3.843   1.560   3.640  0.4684  0.1702 -1.0890
 3824SOL    HW211529   3.696   1.535   3.612  0.1837 -0.4143  0.8036
 3825SOL     OW11530   0.512   0.387   3.864  0.1676  0.0962 -0.4778
 3825SOL    HW111531   0.499   0.452   3.795 -0.7415  1.9706  1.3575
 3825SOL    HW211532   0.555   0.435   3.934 -0.7658 -1.2084  1.0404
 3826SOL     OW11533   2.966   4.776   0.619 -0.1657 -0.0016  0.6814
 3826SOL    HW111534   2.973   4.763   0.524  0.1076 -0.8188  0.8077
 3826SOL    HW211535   2.922   4.861   0.628  1.9112  1.2514 -0.1569
 3827SOL     OW11536   0.231   0.114   1.854  0.3026  0.3495  0.1157
 3827SOL    HW111537   0.160   0.178   1.860 -0.1915 -0.3187  1.9007
 3827SOL    HW211538   0.236   0.075   1.941  1.3153 -1.2795 -0.6231
 3828SOL     OW11539   3.792   1.015   4.690  0.0709 -1.0122 -0.3464
 3828SOL    HW111540   3.756   0.938   4.735  1.6253 -1.1102  0.7951
 3828SOL    HW211541   3.837   1.064   4.758  0.8675 -0.1447 -1.4613
 3829SOL     OW11542   4.286   1.340   2.307 -0.0450  0.1913 -0.3173
 3829SOL    HW111543   4.219   1.281   2.272  0.5276 -0.1642 -0.8530
 3829SOL    HW211544   4.240   1.422   2.324 -0.6586 -0.1162 -0.4545
 3830SOL     OW11545   0.711   2.730   0.664  0.2825  0.4623 -0.3205
 3830SOL    HW111546   0.651   2.666   0.626 -1.2339  0.6484  1.6281
 3830SOL    HW211547   0.657   2.808   0.680  1.1761  0.8796  0.8532
 3831SOL     OW11548   3.950   0.458   1.564  0.3186  0.5286  0.4176
 3831SOL    HW111549   3.937   0.397   1.636  1.2317 -1.7073 -1.1684
 3831SOL    HW211550   3.877   0.519   1.570 -0.9380 -1.0178  1.8497
 3832SOL     OW11551   4.806   1.890   1.039 -0.4105 -0.0530  0.1902
 3832SOL    HW111552   4.883   1.887   0.982  0.9367 -1.7471  1.9588
 3832SOL    HW211553   4.832   1.946   1.112 -1.2019  0.1033  0.3625
 3833SOL     OW11554   0.693   3.053   4.481 -0.1479 -0.3815 -0.2658
 3833SOL    HW111555   0.769   3.012   4.521  0.1410  0.2644 -0.1493
 3833SOL    HW211556   0.724   3.137   4.449 -1.0984  0.4274  0.8691
 3834SOL     OW11557   4.322   1.289   4.774 -0.7855  0.1258  0.3531
 3834SOL    HW111558   4.374   1.322   4.700  1.7772 -3.3981  0.3010
 3834SOL    HW211559   4.268   1.220   4.736  0.4283 -1.6109  1.6132
 3835SOL     OW11560   4.187   3.602  -0.009  0.2065 -0.3659  0.4511
 3835SOL    HW111561   4.156   3.540   0.057  1.0405 -0.7285  0.5173
 3835SOL    HW211562   4.200   3.684   0.038  1.2407 -0.7467  0.8468
 3836SOL     OW11563   2.409   0.593   3.613  0.0409 -0.4084  0.4930
 3836SOL    HW111564   2.347   0.540   3.663  0.2788 -0.7376  0.4450
 3836SOL    HW211565   2.366   0.609   3.530  0.4626 -1.5747  0.0349
 3837SOL     OW11566   3.084   4.038   1.379  0.4169 -0.6166  0.6016
 3837SOL    HW111567   3.075   4.064   1.287  1.7196  0.3376  0.7116
 3837SOL    HW211568   3.018   4.090   1.425  0.4134 -0.3719  0.3216
 3838SOL     OW11569   0.785   1.358   3.440  0.5753 -0.0559  0.0329
 3838SOL    HW111570   0.875   1.337   3.464  0.6024  1.5648  1.5850
 3838SOL    HW211571   0.788   1.450   3.412 -0.8018  0.5424  1.6357
 3839SOL     OW11572   1.449   2.024   1.641  0.3025  0.1761 -0.1125
 3839SOL    HW111573   1.484   2.010   1.729  0.3843  1.6277  0.1187
 3839SOL    HW211574   1.452   2.119   1.629 -2.6688  0.3070 -0.4499
 3840SOL     OW11575   0.388   0.786   1.276  0.5382 -0.6819  0.4971
 3840SOL    HW111576   0.380   0.714   1.214 -1.4415  0.2686 -0.4550
 3840SOL    HW211577   0.374   0.746   1.362  0.0286 -1.5299  0.0267
 3841SOL     OW11578   1.592   4.039   4.556 -0.7972 -0.1374  0.2423
 3841SOL    HW111579   1.504   4.002   4.566 -0.6806 -0.3455  0.4936
 3841SOL    HW211580   1.576   4.125   4.517 -0.9010 -1.4600 -2.8641
 3842SOL     OW11581   4.064   3.524   4.330 -0.4268  0.2528  0.7250
 3842SOL    HW111582   4.028   3.521   4.241 -0.1183  0.0535  0.6026
 3842SOL    HW211583   4.114   3.606   4.333  0.3134 -0.1734  0.4107
 3843SOL     OW11584   2.213   3.786   1.067  0.1990 -0.3506 -0.0630
 3843SOL    HW111585   2.270   3.854   1.033 -1.0200  1.4378  1.2579
 3843SOL    HW211586   2.237   3.778   1.160 -0.7233 -0.5851  0.1698
 3844SOL     OW11587   0.983   1.458   1.680 -0.1448  0.5676 -0.2625
 3844SOL    HW111588   1.012   1.541   1.642  0.5671  0.3250 -0.2483
 3844SOL    HW211589   0.892   1.450   1.651  0.3583  0.4218 -1.8807
 3845SOL     OW11590   1.254   2.637   0.942 -0.3376  0.0348 -0.1801
 3845SOL    HW111591   1.302   2.599   0.868  1.6662  0.2054  0.9508
 3845SOL    HW211592   1.304   2.716   0.963 -1.4779  0.5300  0.7210
 3846SOL     OW11593   4.911   3.578   2.350 -0.2425 -0.9868 -0.4626
 3846SOL    HW111594   4.931   3.485   2.366  1.0921 -1.1485 -2.7726
 3846SOL    HW211595   4.817   3.579   2.333 -1.1542 -1.2412  3.4920
 3847SOL     OW11596   0.715   1.279   4.785  1.4178 -0.0668  0.4124
 3847SOL    HW111597   0.809   1.277   4.806  1.4978  0.3761  0.1131
 3847SOL    HW211598   0.711   1.260   4.692  1.3493  1.5739  0.0569
 3848SOL     OW11599   4.700   4.157   1.078  0.3342  0.1005 -0.3222
 3848SOL    HW111600   4.616   4.114   1.061  0.6298 -0.7733  0.3557
 3848SOL    HW211601   4.762   4.085   1.091  1.0357  0.7339 -0.0758
 3849SOL     OW11602   3.788   4.697   3.058  0.0690  0.1946  0.2396
 3849SOL    HW111603   3.721   4.717   2.992 -0.3120 -1.3176  0.1415
 3849SOL    HW211604   3.795   4.602   3.058  2.5738  0.3277 -0.0609
 3850SOL     OW11605   1.654   1.371   4.638 -0.4245 -0.3843  0.0857
 3850SOL    HW111606   1.682   1.313   4.709 -0.0681  0.6816  0.8469
 3850SOL    HW211607   1.599   1.436   4.681 -0.7520 -0.1160 -0.7358
 3851SOL     OW11608   2.957   0.015   2.533  0.1308  0.6099  0.1791
 3851SOL    HW111609   2.978   0.042   2.443  1.1285 -0.5872  0.0309
 3851SOL    HW211610   2.870  -0.026   2.525  0.4302  0.0560 -0.3415
 3852SOL     OW11611   0.748   0.895   2.804  0.0222  0.8202 -0.5270
 3852SOL    HW111612   0.690   0.921   2.875 -1.4647 -0.2407 -1.2989
 3852SOL    HW211613   0.829   0.867   2.848 -0.2316  1.8085  0.6060
 3853SOL     OW11614   2.767   2.556   3.328 -0.0693  0.0007 -0.7600
 3853SOL    HW111615   2.770   2.650   3.311 -2.1022  0.6604  1.9487
 3853SOL    HW211616   2.829   2.519   3.264  2.5288  3.3236 -0.4727
 3854SOL     OW11617   2.939   1.938   4.963  0.0325  0.2371  0.0382
 3854SOL    HW111618   2.975   1.954   4.876  1.3375  0.7719  0.6620
 3854SOL    HW211619   2.845   1.926   4.948 -0.1893  2.8804 -1.1572
 3855SOL     OW11620   0.281   1.423   4.630 -0.6438  0.2725 -0.0295
 3855SOL    HW111621   0.336   1.373   4.691 -1.0383  2.2341  2.0662
 3855SOL    HW211622   0.341   1.446   4.559  1.3961  2.3287  2.1629
 3856SOL     OW11623   3.501   4.764   2.218 -0.3065 -0.2319  0.1033
 3856SOL    HW111624   3.549   4.763   2.300 -0.6446  0.4125  0.3172
 3856SOL    HW211625   3.435   4.695   2.228 -1.0442  0.5459  0.8164
 3857SOL     OW11626   0.116   1.751   1.424  0.6541  0.4302 -0.1278
 3857SOL    HW111627   0.058   1.687   1.466  1.3520  0.1132  0.3609
 3857SOL    HW211628   0.071   1.773   1.342  1.3316 -2.2048 -1.3228
 3858SOL     OW11629   3.323   1.965   4.689  0.2319  0.3887 -0.1839
 3858SOL    HW111630   3.414   1.954   4.661 -0.0490 -2.0108 -0.3966
 3858SOL    HW211631   3.291   1.875   4.700 -1.6789  1.1918  1.3547
 3859SOL     OW11632   3.105   2.305   2.699  0.0967 -0.4801  0.6864
 3859SOL    HW111633   3.167   2.237   2.725 -1.7222 -2.8803 -0.8741
 3859SOL    HW211634   3.148   2.351   2.627  0.3780 -1.6437  0.0872
 3860SOL     OW11635   4.268   0.242   4.481 -0.1748 -0.6460  0.6662
 3860SOL    HW111636   4.283   0.170   4.419 -0.9394 -0.8651  0.7306
 3860SOL    HW211637   4.316   0.316   4.443 -1.1462 -0.6014 -0.5446
 3861SOL     OW11638   3.053   3.537   1.264 -0.0240 -0.2600  0.0351
 3861SOL    HW111639   2.990   3.536   1.192 -0.8422 -1.8226  0.7423
 3861SOL    HW211640   3.005   3.576   1.337  0.3490  0.0104  0.1368
 3862SOL     OW11641   1.144   3.498   1.407 -0.0100  0.2753  0.3068
 3862SOL    HW111642   1.068   3.521   1.459  0.3524 -0.0525  0.9885
 3862SOL    HW211643   1.116   3.513   1.316 -0.6380  0.8493  0.5881
 3863SOL     OW11644   0.243   0.742   2.297 -0.1661 -0.0969  0.0004
 3863SOL    HW111645   0.308   0.734   2.367  1.0499  1.0031 -0.9538
 3863SOL    HW211646   0.245   0.834   2.273 -1.1834 -0.2964 -0.9119
 3864SOL     OW11647   3.004   3.282   4.803 -0.5972 -0.0857  0.2062
 3864SOL    HW111648   2.956   3.364   4.812 -0.8070 -0.1610 -0.1818
 3864SOL    HW211649   2.942   3.222   4.762 -0.0393 -0.0506 -0.7228
 3865SOL     OW11650   2.871   3.131   0.288 -0.0529  0.5382  0.1731
 3865SOL    HW111651   2.816   3.135   0.210 -0.5656  0.4175  0.5236
 3865SOL    HW211652   2.946   3.077   0.263 -0.6671 -0.2598  0.0415
 3866SOL     OW11653   0.577   2.519   3.357 -0.1818 -0.2533  0.3777
 3866SOL    HW111654   0.513   2.574   3.401 -0.5338  0.0259 -0.4668
 3866SOL    HW211655   0.582   2.554   3.268 -0.2084 -1.3957 -0.0959
 3867SOL     OW11656   0.440   1.121   4.415 -0.0826 -0.1725  0.3032
 3867SOL    HW111657   0.498   1.197   4.420  0.7165 -0.8165  0.9340
 3867SOL    HW211658   0.433   1.102   4.321  0.2989  0.2289  0.1919
 3868SOL     OW11659   2.164   4.106   1.529 -0.0679  0.2812 -0.0798
 3868SOL    HW111660   2.202   4.031   1.575  1.4186  0.2943 -1.2206
 3868SOL    HW211661   2.113   4.068   1.458 -0.9980  0.3152  0.5508
 3869SOL     OW11662   1.970   0.270   3.710 -1.1780  0.6589 -0.0650
 3869SOL    HW111663   2.054   0.283   3.754 -0.2748 -0.3212 -1.4220
 3869SOL    HW211664   1.946   0.180   3.731 -0.6834  0.1407 -1.5955
 3870SOL     OW11665   3.315   1.482   3.444 -0.5233  0.0926  0.2758
 3870SOL    HW111666   3.352   1.396   3.424 -0.3270  0.1648  0.3291
 3870SOL    HW211667   3.342   1.500   3.534  1.8934  1.4725 -0.6550
 3871SOL     OW11668   2.214   0.179   0.515 -0.1834  0.0791  0.0719
 3871SOL    HW111669   2.237   0.237   0.588  1.7666 -1.6488  0.9473
 3871SOL    HW211670   2.202   0.093   0.555 -0.1221 -0.7101 -1.5185
 3872SOL     OW11671   1.229   1.649   0.212  0.0704  0.4910  0.2790
 3872SOL    HW111672   1.205   1.601   0.291  1.0813 -1.8124 -0.7033
 3872SOL    HW211673   1.325   1.657   0.217  0.1995 -0.0868 -0.8874
 3873SOL     OW11674   0.965   3.869   1.830 -0.3208 -0.0743 -0.1901
 3873SOL    HW111675   0.958   3.950   1.780  1.7606 -0.3189 -0.9824
 3873SOL    HW211676   1.039   3.823   1.790  0.0796 -1.2451  1.7913
 3874SOL     OW11677   3.381   2.811   1.020 -0.2486 -0.2447 -0.9709
 3874SOL    HW111678   3.433   2.860   1.083 -1.3430 -0.4117  0.1071
 3874SOL    HW211679   3.293   2.849   1.026 -0.6952 -1.1649 -1.4055
 3875SOL     OW11680   1.718   3.063   3.823 -0.5465  0.1718 -0.6172
 3875SOL    HW111681   1.781   3.006   3.868 -0.2745  1.2645  0.4194
 3875SOL    HW211682   1.763   3.090   3.743  0.8342  1.8764  0.6486
 3876SOL     OW11683   2.356   3.439   3.116  0.3180 -0.2357  0.0155
 3876SOL    HW111684   2.297   3.495   3.066 -0.5912 -0.6741  0.5791
 3876SOL    HW211685   2.431   3.425   3.057 -0.0306  0.5038 -0.6195
 3877SOL     OW11686   1.779   3.178   2.003  0.4183  0.1919  0.7904
 3877SOL    HW111687   1.871   3.175   1.980  0.5874  0.8832  1.3565
 3877SOL    HW211688   1.752   3.087   2.008  0.6574  0.0007 -0.9960
 3878SOL     OW11689   2.446   1.774   3.121  0.0018  0.8352 -0.1474
 3878SOL    HW111690   2.431   1.780   3.027 -2.4866  0.7591  0.1559
 3878SOL    HW211691   2.463   1.864   3.149  4.1468  0.5064 -1.0057
 3879SOL     OW11692   3.079   2.099   1.481 -0.4114 -0.5460  0.5817
 3879SOL    HW111693   3.013   2.163   1.455  0.8625 -0.0618 -1.7392
 3879SOL    HW211694   3.089   2.112   1.575 -0.4654  2.4438  0.2711
 3880SOL     OW11695   0.240   1.293   0.819  0.5582 -0.6224 -0.0044
 3880SOL    HW111696   0.148   1.318   0.823  0.1636 -1.7853 -1.0801
 3880SOL    HW211697   0.239   1.200   0.795  1.9783 -1.1996  1.9095
 3881SOL     OW11698   4.721   2.297   0.313  0.3569  0.2056 -0.4587
 3881SOL    HW111699   4.777   2.374   0.327  1.1026 -0.2065 -1.1288
 3881SOL    HW211700   4.644   2.332   0.267  0.4313  0.6454 -0.2524
 3882SOL     OW11701   2.764   3.364   3.600 -0.0547 -0.2483 -0.5053
 3882SOL    HW111702   2.742   3.389   3.690 -0.5393 -0.0868 -0.6616
 3882SOL    HW211703   2.697   3.301   3.576 -0.3452  0.2355 -0.9882
 3883SOL     OW11704   1.495   1.534   2.478 -1.0757 -0.5172 -0.4779
 3883SOL    HW111705   1.506   1.591   2.402 -1.1063  0.5164  0.2752
 3883SOL    HW211706   1.496   1.445   2.441 -0.1341 -0.0818 -1.5676
 3884SOL     OW11707   1.458   2.226   4.064 -0.1061 -0.0312  0.1202
 3884SOL    HW111708   1.535   2.248   4.011  0.0085 -0.3614  0.1412
 3884SOL    HW211709   1.386   2.220   4.002 -0.2144  0.7628  0.1673
 3885SOL     OW11710   4.774   4.769  -0.005  0.0126  0.0113  0.0657
 3885SOL    HW111711   4.792   4.757   0.089  0.6424  0.8422  0.0551
 3885SOL    HW211712   4.688   4.812  -0.007 -0.5797 -1.1222  0.2095
 3886SOL     OW11713   2.487   1.396   1.566 -0.3592  0.5538  0.2755
 3886SOL    HW111714   2.563   1.410   1.509 -0.6457 -0.7251 -0.4638
 3886SOL    HW211715   2.446   1.483   1.573  0.6260  1.0669 -0.0885
 3887SOL     OW11716   1.482   3.368   1.071  0.6473 -0.1568 -0.4633
 3887SOL    HW111717   1.546   3.379   1.001  0.5104  0.8741 -0.4489
 3887SOL    HW211718   1.532   3.380   1.152  0.6007 -0.2265 -0.4243
 3888SOL     OW11719   0.309   4.670   3.854 -0.2938 -0.5356 -0.0846
 3888SOL    HW111720   0.319   4.762   3.880 -0.5616 -0.0335 -1.6745
 3888SOL    HW211721   0.390   4.629   3.884  0.4828  0.5375 -0.6083
 3889SOL     OW11722   4.589   1.560   4.185 -0.5006  0.1591 -0.5221
 3889SOL    HW111723   4.647   1.514   4.245  1.2847 -0.9358 -2.9078
 3889SOL    HW211724   4.525   1.495   4.158 -0.8990  0.4612 -0.3241
 3890SOL     OW11725   4.831   2.215   4.152  0.3399  0.3806 -0.2933
 3890SOL    HW111726   4.754   2.198   4.098 -0.8840  1.6836  0.9776
 3890SOL    HW211727   4.905   2.187   4.097 -0.9713 -0.3198 -1.7865
 3891SOL     OW11728   0.150   0.447   1.706  0.4909 -0.0885 -0.5313
 3891SOL    HW111729   0.184   0.523   1.660 -1.3286  2.2291  1.6561
 3891SOL    HW211730   0.216   0.427   1.772  0.3686  0.4674 -0.2404
 3892SOL     OW11731   3.795   4.018   1.554  0.4274 -0.4437 -0.1639
 3892SOL    HW111732   3.733   4.025   1.482  1.6193  2.7445 -1.0472
 3892SOL    HW211733   3.757   4.071   1.624  0.4021 -1.5873  0.7174
 3893SOL     OW11734   1.091   2.001   4.869  0.2766  0.5352 -0.7817
 3893SOL    HW111735   1.122   1.971   4.954 -1.0252 -0.1535 -0.5217
 3893SOL    HW211736   1.170   2.027   4.822  1.2573 -1.3033 -0.2255
 3894SOL     OW11737   0.035   4.374   4.585 -0.0569 -0.0166  0.0860
 3894SOL    HW111738   0.019   4.427   4.664 -1.1149 -1.4037  0.8517
 3894SOL    HW211739  -0.038   4.394   4.527  0.0343  0.0461 -0.0078
 3895SOL     OW11740   4.485   2.725   4.765 -0.1869 -0.0964 -0.1599
 3895SOL    HW111741   4.538   2.759   4.693 -0.1273 -0.3069 -0.2129
 3895SOL    HW211742   4.488   2.630   4.756 -1.3187 -0.0992 -0.7040
 3896SOL     OW11743   1.797   1.446   1.372 -0.1117 -0.1645  0.3605
 3896SOL    HW111744   1.817   1.511   1.440 -0.2451  1.8505 -1.4415
 3896SOL    HW211745   1.878   1.439   1.321 -0.9341  0.7637 -1.1450
 3897SOL     OW11746   4.501   1.348   3.940 -0.2988  0.0586 -0.3295
 3897SOL    HW111747   4.536   1.295   4.012 -1.6008 -0.7697 -0.2792
 3897SOL    HW211748   4.407   1.332   3.942 -0.5294  1.1703 -1.3148
 3898SOL     OW11749   4.390   1.799   1.646 -0.5630 -0.0400  0.3941
 3898SOL    HW111750   4.398   1.801   1.550 -0.0920  1.2157  0.4396
 3898SOL    HW211751   4.318   1.858   1.665 -1.2461 -0.9772  0.7800
 3899SOL     OW11752   2.494   0.093   2.502  0.0400  0.6060  0.2477
 3899SOL    HW111753   2.448   0.147   2.566  0.3800  2.4331 -0.9756
 3899SOL    HW211754   2.465   0.126   2.417  1.0181 -0.5066 -0.5542
 3900SOL     OW11755   2.476   1.390   1.855  0.0348 -0.2514  0.6613
 3900SOL    HW111756   2.446   1.353   1.772  1.5906 -0.0834 -0.0022
 3900SOL    HW211757   2.571   1.378   1.855  0.3991  2.0597  1.2355
 3901SOL     OW11758   3.087   4.386   4.663 -0.4717  0.0608  0.1124
 3901SOL    HW111759   3.124   4.317   4.608 -1.7789  0.2154 -1.0309
 3901SOL    HW211760   3.122   4.467   4.626 -0.0967  0.0910  0.5270
 3902SOL     OW11761   2.615   1.059   2.348 -0.8902  0.8656  0.0302
 3902SOL    HW111762   2.646   1.106   2.271 -0.1086  0.1187 -0.1281
 3902SOL    HW211763   2.690   1.006   2.375 -1.5478  0.1971  0.5768
 3903SOL     OW11764   1.313   0.909   4.768 -0.9681  0.0688 -0.4096
 3903SOL    HW111765   1.369   0.838   4.738  0.0622  0.3704  0.7249
 3903SOL    HW211766   1.251   0.867   4.828  1.0143  0.3706  1.9955
 3904SOL     OW11767   3.776   2.331   0.620  0.1838 -0.2330 -0.1160
 3904SOL    HW111768   3.802   2.347   0.529  1.1467  0.5607  0.2699
 3904SOL    HW211769   3.820   2.250   0.643  3.0026  1.3709  0.6990
 3905SOL     OW11770   0.225   4.119   2.488 -0.3356  0.2874 -0.5598
 3905SOL    HW111771   0.183   4.104   2.573  2.4621  1.5394  1.1933
 3905SOL    HW211772   0.237   4.031   2.452  0.4134 -0.4874  1.4253
 3906SOL     OW11773   2.721   1.029   3.548  0.4843  0.2572  0.0598
 3906SOL    HW111774   2.748   0.945   3.511 -2.0370 -0.6324  0.0435
 3906SOL    HW211775   2.656   1.006   3.615 -0.0776  2.1790  0.2400
 3907SOL     OW11776   2.842   3.610   3.865  0.5765  0.3190  0.3377
 3907SOL    HW111777   2.905   3.586   3.797  0.3333  0.6041  0.0117
 3907SOL    HW211778   2.888   3.674   3.920  0.2066  1.3690 -0.5418
 3908SOL     OW11779   1.049   2.731   2.103 -0.5223 -0.3905 -0.0611
 3908SOL    HW111780   1.017   2.821   2.114  1.7235  0.4071  0.5518
 3908SOL    HW211781   1.013   2.684   2.178 -0.5484  0.3867  0.4284
 3909SOL     OW11782   4.721   3.056   2.516  0.4290  0.2166  0.4588
 3909SOL    HW111783   4.660   3.082   2.585  0.9840 -1.8215  1.8063
 3909SOL    HW211784   4.693   2.967   2.492  1.0430  0.4020 -1.0633
 3910SOL     OW11785   0.004   1.014   1.790 -0.4602 -0.1960  0.0916
 3910SOL    HW111786  -0.054   1.060   1.730 -0.7123 -0.5284  0.0818
 3910SOL    HW211787   0.075   0.981   1.735  0.5665  1.5177  0.3146
 3911SOL     OW11788   1.978   3.568   3.478  0.1288  0.2578  0.6488
 3911SOL    HW111789   1.950   3.636   3.417  1.2025 -0.0174 -0.1706
 3911SOL    HW211790   2.070   3.554   3.459 -0.4464 -2.7402 -0.5331
 3912SOL     OW11791   0.183   2.127   0.748  0.0137 -0.0531 -0.1251
 3912SOL    HW111792   0.096   2.130   0.708 -0.0867 -1.6912 -0.1124
 3912SOL    HW211793   0.231   2.061   0.698  1.4011  1.0867 -0.3656
 3913SOL     OW11794   0.292   2.152   3.252  0.3163 -0.0931  0.2412
 3913SOL    HW111795   0.380   2.175   3.224  0.0682 -0.7624 -1.2232
 3913SOL    HW211796   0.241   2.152   3.171 -0.8315 -0.5775  0.9347
 3914SOL     OW11797   4.245   3.871   0.764 -0.5805  0.7645  0.0313
 3914SOL    HW111798   4.330   3.866   0.719 -1.4031  0.0483 -1.5377
 3914SOL    HW211799   4.267   3.875   0.857  1.2503  3.3391 -0.3996
 3915SOL     OW11800   2.719   2.473   3.619  0.0257 -0.2686  0.9323
 3915SOL    HW111801   2.633   2.516   3.622 -0.5867 -1.1517 -1.2268
 3915SOL    HW211802   2.760   2.508   3.540  1.2087 -0.6756  1.3464
 3916SOL     OW11803   4.822   1.057   3.566 -0.0121  0.1340  0.5031
 3916SOL    HW111804   4.780   1.140   3.588 -0.5813  0.2421 -0.9034
 3916SOL    HW211805   4.869   1.075   3.485  1.7917 -0.3198  1.4056
 3917SOL     OW11806   2.122   1.627   1.492 -0.7843  0.0870  0.2664
 3917SOL    HW111807   2.118   1.700   1.554  0.7067 -0.0413  0.5582
 3917SOL    HW211808   2.098   1.666   1.408  0.4734  1.0521  0.3250
 3918SOL     OW11809   1.364   3.899   4.526 -0.2056  0.7266  0.3204
 3918SOL    HW111810   1.341   3.923   4.436  0.7167  0.3161 -0.0302
 3918SOL    HW211811   1.306   3.825   4.546  0.8227 -0.3628 -0.5949
 3919SOL     OW11812   1.434   4.526   1.906  0.6375  0.0282  0.0081
 3919SOL    HW111813   1.485   4.499   1.983 -0.2869 -0.9179  0.3153
 3919SOL    HW211814   1.444   4.621   1.903  0.4383  0.1264  1.4935
 3920SOL     OW11815   0.716   4.295   0.956  0.4089 -0.2272 -0.3075
 3920SOL    HW111816   0.699   4.212   1.000  1.0657 -0.5661 -0.6701
 3920SOL    HW211817   0.743   4.354   1.026 -0.2017 -0.2723 -0.0276
 3921SOL     OW11818   1.714   1.193   4.058 -0.0899 -0.0071 -0.2206
 3921SOL    HW111819   1.753   1.267   4.104  0.2361 -0.1988 -0.1898
 3921SOL    HW211820   1.782   1.126   4.057 -0.1846 -0.0988 -0.7524
 3922SOL     OW11821   2.561   3.662   0.268 -0.2984  0.4881 -0.1902
 3922SOL    HW111822   2.524   3.711   0.195  0.1784  0.8693 -0.1801
 3922SOL    HW211823   2.486   3.638   0.322 -0.5403  1.1300 -0.2391
 3923SOL     OW11824   2.317   1.497   0.289  0.6114  0.2073  0.5113
 3923SOL    HW111825   2.321   1.401   0.295  2.6824  0.2735  0.7231
 3923SOL    HW211826   2.230   1.514   0.253  0.5668 -1.8125 -0.5175
 3924SOL     OW11827   2.426   4.217   1.652 -0.4002  0.0502  0.3934
 3924SOL    HW111828   2.374   4.296   1.639 -0.4451  0.1516  1.1765
 3924SOL    HW211829   2.387   4.153   1.592  0.4780  0.9829 -1.2371
 3925SOL     OW11830   3.649   2.071   0.030  0.5750 -0.8847 -0.0559
 3925SOL    HW111831   3.557   2.057   0.052  1.0053 -1.2248  1.6726
 3925SOL    HW211832   3.647   2.125  -0.049 -1.1092  0.0923  0.6029
 3926SOL     OW11833   1.543   3.220   4.826  0.3624 -0.0139  0.4478
 3926SOL    HW111834   1.619   3.250   4.775 -0.0464  0.8092  0.3115
 3926SOL    HW211835   1.580   3.192   4.909  0.7086  1.4871  0.8341
 3927SOL     OW11836   0.198   3.027   0.155  0.0941 -0.5217  0.3909
 3927SOL    HW111837   0.169   2.946   0.113 -2.7109 -0.3330  1.7668
 3927SOL    HW211838   0.235   2.999   0.239 -1.1895 -0.3877  1.0162
 3928SOL     OW11839   0.554   3.652   1.757  0.5387  0.5027  0.1344
 3928SOL    HW111840   0.557   3.735   1.710  0.3755  0.1588 -0.4842
 3928SOL    HW211841   0.621   3.660   1.825  3.3849 -0.3680 -2.3932
 3929SOL     OW11842   1.654   1.702   0.916  0.5765 -0.3244 -0.1379
 3929SOL    HW111843   1.626   1.793   0.926 -2.2400 -1.3591  4.5256
 3929SOL    HW211844   1.586   1.661   0.862 -0.2245 -0.3095  0.8226
 3930SOL     OW11845   0.727   2.525   2.831  0.2025 -0.6272  0.1650
 3930SOL    HW111846   0.674   2.479   2.766 -0.3451  0.0265  0.1323
 3930SOL    HW211847   0.705   2.618   2.818  1.6099 -0.3061 -0.0711
 3931SOL     OW11848   3.218   1.108   2.679 -0.0796  0.2097  0.5786
 3931SOL    HW111849   3.311   1.120   2.699 -0.0245  1.5977 -0.3576
 3931SOL    HW211850   3.208   1.014   2.666  0.8896 -0.1266  2.0632
 3932SOL     OW11851   0.006   3.032   1.606  0.8406 -0.5463  0.0191
 3932SOL    HW111852   0.057   2.976   1.548  2.1624  0.4258  0.2001
 3932SOL    HW211853   0.060   3.044   1.684  1.0462  1.6817 -0.3777
 3933SOL     OW11854   1.698   4.761   2.484 -0.0659  0.5567  0.0475
 3933SOL    HW111855   1.666   4.849   2.505  0.1263  0.5638  0.3059
 3933SOL    HW211856   1.788   4.775   2.455  0.4900  0.2777  1.5838
 3934SOL     OW11857   3.643   2.463   3.714 -0.0236  0.0255  0.1979
 3934SOL    HW111858   3.632   2.397   3.645  0.4707  0.3800 -0.2289
 3934SOL    HW211859   3.595   2.428   3.789 -2.3300  0.5580 -0.9354
 3935SOL     OW11860   0.374   1.590   4.818 -0.0241 -0.1456 -0.4769
 3935SOL    HW111861   0.313   1.598   4.745 -1.1463 -1.4798  0.2757
 3935SOL    HW211862   0.460   1.604   4.778 -0.7556  1.6460 -1.5795
 3936SOL     OW11863   1.557   3.276   0.708  0.5600 -0.2080  0.0092
 3936SOL    HW111864   1.628   3.229   0.664  2.1299  2.6072 -0.7004
 3936SOL    HW211865   1.601   3.345   0.757 -1.6340  1.1562  0.1682
 3937SOL     OW11866   2.166   2.336   1.248 -0.4059  0.0335 -0.1980
 3937SOL    HW111867   2.104   2.355   1.318  1.0453 -0.1794  1.1897
 3937SOL    HW211868   2.252   2.355   1.285  0.5295 -1.5548 -1.3884
 3938SOL     OW11869   4.168   3.999   4.910 -0.5341 -0.4340 -0.0022
 3938SOL    HW111870   4.206   3.929   4.964  1.4190  0.6879  0.1739
 3938SOL    HW211871   4.201   3.982   4.822  0.7922  0.7797  0.2278
 3939SOL     OW11872   3.807   1.653   4.476  0.6437 -0.2507  0.1226
 3939SOL    HW111873   3.814   1.588   4.545  0.8890 -0.1994  0.1458
 3939SOL    HW211874   3.746   1.614   4.413  0.7411 -0.4754  0.1653
 3940SOL     OW11875   4.296   0.194   3.426 -0.4197 -0.4927 -0.1674
 3940SOL    HW111876   4.360   0.140   3.472  2.3744  1.8376 -1.0698
 3940SOL    HW211877   4.320   0.284   3.447 -2.3280  0.5422 -2.0059
 3941SOL     OW11878   1.868   0.975   4.093 -0.1540 -0.2305 -0.6006
 3941SOL    HW111879   1.796   0.916   4.117  0.4632 -0.7884 -0.0519
 3941SOL    HW211880   1.908   0.934   4.017 -0.4941  0.1571 -0.9957
 3942SOL     OW11881   0.161   4.138   0.457  0.9599  0.0786  0.2661
 3942SOL    HW111882   0.111   4.094   0.526 -0.2048  0.8481 -0.0595
 3942SOL    HW211883   0.252   4.130   0.484  0.9391 -3.4227 -0.2710
 3943SOL     OW11884   2.237   1.132   4.422  0.5343  0.5294 -0.1380
 3943SOL    HW111885   2.247   1.226   4.408  0.5444  0.2381 -2.4198
 3943SOL    HW211886   2.187   1.101   4.346 -1.0987 -1.0350  1.4800
 3944SOL     OW11887   0.128   4.836   0.531 -0.6025  0.2893 -0.3459
 3944SOL    HW111888   0.169   4.839   0.618 -0.7570  2.3015 -0.2975
 3944SOL    HW211889   0.045   4.882   0.542 -1.0261 -0.1982 -1.3848
 3945SOL     OW11890   3.089   0.676   0.722  0.2243  0.0178  0.1186
 3945SOL    HW111891   3.105   0.635   0.638 -3.9910 -0.2621 -0.7195
 3945SOL    HW211892   3.093   0.770   0.704 -1.3515 -0.0306 -0.6337
 3946SOL     OW11893   2.930   1.695   1.115  0.0267  0.1128 -0.3826
 3946SOL    HW111894   2.904   1.761   1.178  0.9136 -0.1066  0.2403
 3946SOL    HW211895   2.964   1.744   1.040  0.5315  0.3645  0.0103
 3947SOL     OW11896   0.995   0.945   4.220  0.6199  0.0644  0.3008
 3947SOL    HW111897   1.037   0.927   4.136 -1.1937  1.7067 -1.0604
 3947SOL    HW211898   0.914   0.893   4.218  0.7458 -0.1728  1.1934
 3948SOL     OW11899   0.095   4.887   3.665 -0.1531  0.4327  0.1936
 3948SOL    HW111900   0.064   4.813   3.612 -0.0039 -1.0130  2.0126
 3948SOL    HW211901   0.129   4.950   3.601 -1.5582 -0.4448 -1.5049
 3949SOL     OW11902   2.004   4.002   1.272 -0.5965  0.2975  0.3424
 3949SOL    HW111903   1.931   4.018   1.331 -0.3788  2.2055  0.1842
 3949SOL    HW211904   2.004   4.078   1.213 -0.3836 -1.1750 -1.6878
 3950SOL     OW11905   3.885   4.550   1.132  0.4129 -0.5161 -0.0495
 3950SOL    HW111906   3.969   4.591   1.153  0.1466  1.5664 -2.5228
 3950SOL    HW211907   3.892   4.526   1.039 -1.7624 -0.0530 -0.4048
 3951SOL     OW11908   3.726   0.889   0.907 -0.3169  0.8514 -0.4208
 3951SOL    HW111909   3.657   0.894   0.973  0.9453 -0.0932  1.0453
 3951SOL    HW211910   3.801   0.852   0.954  1.2218  1.9032 -1.9164
 3952SOL     OW11911   1.952   1.776   1.255  0.4002 -0.5249  0.1535
 3952SOL    HW111912   1.863   1.808   1.267  0.2758 -0.7093 -0.2754
 3952SOL    HW211913   2.006   1.856   1.253  0.2186 -0.4013  0.1854
 3953SOL     OW11914   1.782   1.241   3.006 -0.3291 -0.1019 -0.5362
 3953SOL    HW111915   1.844   1.314   3.016 -0.0329 -0.1697 -1.7571
 3953SOL    HW211916   1.748   1.250   2.917 -2.3462  0.1172  0.1984
 3954SOL     OW11917   0.635   2.719   0.230  0.2854  0.1769  0.4283
 3954SOL    HW111918   0.577   2.650   0.262  1.9492 -0.8482  1.4112
 3954SOL    HW211919   0.720   2.676   0.221  1.2501  1.9678  0.5416
 3955SOL     OW11920   3.366   0.816   1.428 -0.1959  0.5564  0.0824
 3955SOL    HW111921   3.391   0.728   1.458 -1.7288 -0.2110 -0.7190
 3955SOL    HW211922   3.441   0.871   1.447  0.1730 -0.5813  2.1802
 3956SOL     OW11923   3.957   1.951   1.298  0.1069  0.2390  0.5362
 3956SOL    HW111924   4.049   1.949   1.273  0.4733  0.1066  1.8082
 3956SOL    HW211925   3.923   2.030   1.257  0.6226 -0.0433 -0.4655
 3957SOL     OW11926   0.579   3.940   3.391  0.2009  0.9663  0.0032
 3957SOL    HW111927   0.625   3.939   3.475 -0.2600  1.3790  0.2697
 3957SOL    HW211928   0.646   3.966   3.327  0.6490  0.2708  0.1761
 3958SOL     OW11929   2.332   2.245   0.502 -0.4208  0.4615  0.6191
 3958SOL    HW111930   2.279   2.165   0.495  2.3009 -1.3732 -1.2372
 3958SOL    HW211931   2.382   2.233   0.583  0.5581 -0.1601 -0.0563
 3959SOL     OW11932   0.057   0.155   0.012  0.1863 -0.1207 -0.2085
 3959SOL    HW111933   0.024   0.205   0.086  0.6252  1.1511 -0.8402
 3959SOL    HW211934  -0.020   0.137  -0.042  0.2035  1.1472 -0.6950
 3960SOL     OW11935   0.021   1.361   1.035 -0.1839  0.0065  0.3460
 3960SOL    HW111936   0.005   1.369   1.129  0.5291 -0.6786  0.5337
 3960SOL    HW211937   0.082   1.433   1.015  0.7227 -0.6451  0.6821
 3961SOL     OW11938   2.591   3.476   2.972 -0.2391 -0.1795  0.1425
 3961SOL    HW111939   2.576   3.546   2.909 -3.4495 -0.2444  0.6919
 3961SOL    HW211940   2.618   3.521   3.052 -0.6490  0.2814  0.0238
 3962SOL     OW11941   2.316   0.015   2.989  0.8140  0.2721 -0.4039
 3962SOL    HW111942   2.284   0.059   2.910  1.3496  0.3403 -0.5840
 3962SOL    HW211943   2.395  -0.031   2.961  0.2822 -0.7910 -0.2091
 3963SOL     OW11944   3.479   1.366   0.429 -0.2083  0.6504  0.3440
 3963SOL    HW111945   3.555   1.309   0.434 -1.0248 -0.6781 -1.1154
 3963SOL    HW211946   3.507   1.449   0.467  2.0072  0.2606 -0.3057
 3964SOL     OW11947   0.159   3.398   2.784 -0.1398 -0.0856  0.4402
 3964SOL    HW111948   0.225   3.355   2.838  0.3205  0.2446  0.1491
 3964SOL    HW211949   0.161   3.490   2.811 -1.6604 -0.3426  1.6055
 3965SOL     OW11950   1.578   4.948   1.341 -0.3696 -0.1866  0.4755
 3965SOL    HW111951   1.640   5.017   1.363  0.8193 -1.8324  2.7435
 3965SOL    HW211952   1.609   4.913   1.257  0.0553  0.8679  0.1803
 3966SOL     OW11953   2.329   0.858   4.209  0.5260  0.4061 -0.5081
 3966SOL    HW111954   2.322   0.866   4.114 -0.8790 -0.2285 -0.4873
 3966SOL    HW211955   2.255   0.908   4.243  0.9360  0.5068  0.2553
 3967SOL     OW11956   2.787   3.223   2.727  0.2345 -0.9364 -0.1786
 3967SOL    HW111957   2.829   3.190   2.806  0.5623  2.2488  1.1157
 3967SOL    HW211958   2.856   3.225   2.661  0.2249 -2.5670 -0.2757
 3968SOL     OW11959   0.155   0.283   4.792 -0.2546  0.5879  0.0514
 3968SOL    HW111960   0.135   0.216   4.857 -1.1705 -0.1820 -0.9909
 3968SOL    HW211961   0.114   0.363   4.826  0.4304  0.5299  1.0604
 3969SOL     OW11962   4.554   3.144   3.340  0.4853 -0.0494 -0.0378
 3969SOL    HW111963   4.580   3.222   3.290 -0.9689 -0.1083 -0.9593
 3969SOL    HW211964   4.528   3.081   3.273  2.1443 -1.5670  0.6616
 3970SOL     OW11965   1.355   3.169   0.536 -0.4821  0.1457 -0.3099
 3970SOL    HW111966   1.351   3.231   0.464  1.7208 -0.2909 -0.8842
 3970SOL    HW211967   1.409   3.213   0.602 -0.5223 -0.3921  0.0896
 3971SOL     OW11968   4.507   1.643   3.767 -0.0151 -0.5044 -0.3272
 3971SOL    HW111969   4.538   1.646   3.676  0.5957  1.5528 -0.1041
 3971SOL    HW211970   4.588   1.635   3.819  0.1324  2.8819  0.1739
 3972SOL     OW11971   1.565   0.952   1.454  0.1080 -0.1848 -0.1332
 3972SOL    HW111972   1.625   0.997   1.514 -0.3178 -0.0645  0.2028
 3972SOL    HW211973   1.622   0.921   1.383  0.4316  0.7473 -0.2963
 3973SOL     OW11974   3.297   3.698   1.394  0.3280 -0.4855  0.1792
 3973SOL    HW111975   3.305   3.769   1.331  2.6428 -1.0971 -0.2879
 3973SOL    HW211976   3.220   3.649   1.365 -0.5844  1.0926 -0.1947
 3974SOL     OW11977   2.818   2.575   2.599  0.0053  0.3538  0.2888
 3974SOL    HW111978   2.824   2.662   2.639 -1.3781 -0.0040  1.3697
 3974SOL    HW211979   2.869   2.519   2.658  0.9076  0.4202 -0.4149
 3975SOL     OW11980   4.785   2.876   1.532 -0.4257 -0.5870  0.1125
 3975SOL    HW111981   4.840   2.836   1.465  0.0022  0.0079  0.1069
 3975SOL    HW211982   4.830   2.957   1.555 -1.4754  0.0874 -0.1500
 3976SOL     OW11983   3.043   2.006   0.218 -0.1278  0.0779 -0.1804
 3976SOL    HW111984   3.007   1.977   0.134 -0.6215 -0.7863  0.3194
 3976SOL    HW211985   3.128   1.962   0.223  0.0276  0.3536 -0.3468
 3977SOL     OW11986   4.792   2.324   3.453 -0.0426  0.2223  0.2273
 3977SOL    HW111987   4.886   2.315   3.469 -0.0528  0.0938  0.2134
 3977SOL    HW211988   4.752   2.316   3.540  0.1768  3.4115  0.7467
 3978SOL     OW11989   3.204   4.218   3.206 -0.9734 -0.1509  0.1555
 3978SOL    HW111990   3.179   4.259   3.289 -1.8681  1.3219 -0.7824
 3978SOL    HW211991   3.273   4.275   3.171 -0.5280 -0.8141 -0.0589
 3979SOL     OW11992   0.679   0.948   1.788 -0.1302 -0.0167 -0.0153
 3979SOL    HW111993   0.727   0.987   1.715 -0.7495 -0.6458 -0.7819
 3979SOL    HW211994   0.587   0.971   1.771 -0.2628 -0.0356  0.6515
 3980SOL     OW11995   2.709   0.441   3.777 -0.1198 -0.5070 -0.0383
 3980SOL    HW111996   2.782   0.459   3.836 -0.1359 -2.4600  0.6443
 3980SOL    HW211997   2.724   0.499   3.702  1.6354 -0.2108  0.4953
 3981SOL     OW11998   2.340   2.886   0.542 -0.3574 -0.1924 -0.4659
 3981SOL    HW111999   2.342   2.900   0.447 -0.1677 -0.1300 -0.4522
 3981SOL    HW212000   2.403   2.949   0.577  0.1615 -0.7682 -0.3608
 3982SOL     OW12001   0.966   2.044   2.344 -0.0450 -0.2912 -0.5010
 3982SOL    HW112002   0.877   2.056   2.310 -0.0299 -0.6736 -0.6811
 3982SOL    HW212003   1.012   1.995   2.275  0.1116 -0.6894 -0.1217
 3983SOL     OW12004   2.923   1.583   2.915  0.4774 -0.0883  0.1861
 3983SOL    HW112005   2.971   1.623   2.843 -0.1863 -1.2764 -0.9719
 3983SOL    HW212006   2.935   1.489   2.902 -1.7401 -0.4143  0.1103
 3984SOL     OW12007   4.706   3.101   0.665  0.7001  0.0690  0.5932
 3984SOL    HW112008   4.686   3.011   0.693 -0.1133  0.5100  1.5135
 3984SOL    HW212009   4.644   3.119   0.595  1.5900 -0.4466 -0.3484
 3985SOL     OW12010   3.012   3.510   0.162 -0.3730 -0.0825 -0.3387
 3985SOL    HW112011   3.035   3.569   0.090 -1.6310 -0.2924 -0.9293
 3985SOL    HW212012   3.071   3.435   0.151  1.1387  0.9539  0.3345
 3986SOL     OW12013   0.597   2.466   2.596 -0.3826 -0.1426 -1.1791
 3986SOL    HW112014   0.580   2.512   2.514  1.5972 -0.3745 -1.7765
 3986SOL    HW212015   0.649   2.390   2.570 -0.7369 -0.8675  0.1684
 3987SOL     OW12016   3.578   3.999   0.610 -0.2064  0.2046  0.0567
 3987SOL    HW112017   3.562   3.914   0.570 -0.2021  0.2686 -0.0791
 3987SOL    HW212018   3.630   4.047   0.546  1.3614 -0.3374  0.8703
 3988SOL     OW12019   4.142   2.709   1.142 -0.9603 -0.0758 -0.9477
 3988SOL    HW112020   4.095   2.665   1.072  1.4971 -1.0446 -2.1271
 3988SOL    HW212021   4.198   2.772   1.097 -1.5597  1.5222  0.4316
 3989SOL     OW12022   4.146   1.498   3.374  0.2752  0.6189  0.1526
 3989SOL    HW112023   4.084   1.495   3.446  0.6842 -0.3847  0.4671
 3989SOL    HW212024   4.164   1.407   3.353  0.8312  0.9000 -0.6426
 3990SOL     OW12025   3.401   0.686   4.899 -0.4673  0.3828  0.3304
 3990SOL    HW112026   3.329   0.727   4.947 -1.0164 -0.7381  0.5191
 3990SOL    HW212027   3.359   0.617   4.847  0.2134  1.0922 -1.2245
 3991SOL     OW12028   4.651   1.127   1.810  0.6936  0.3050  0.1050
 3991SOL    HW112029   4.681   1.157   1.724  0.1280 -0.9655 -0.5614
 3991SOL    HW212030   4.556   1.120   1.801  0.6643 -0.1462  0.7340
 3992SOL     OW12031   4.352   2.115   4.666  0.4387  0.2620 -0.0111
 3992SOL    HW112032   4.377   2.153   4.581 -1.0230  0.9537 -0.1602
 3992SOL    HW212033   4.282   2.172   4.698 -1.6616 -2.1087 -0.0899
 3993SOL     OW12034   3.449   0.847   4.523  0.6527 -0.6603  0.0052
 3993SOL    HW112035   3.474   0.808   4.439  2.8250 -2.1904  1.2557
 3993SOL    HW212036   3.463   0.777   4.587 -1.3961  0.3129  1.6214
 3994SOL     OW12037   0.896   3.793   3.864 -0.1662  0.4273  0.0048
 3994SOL    HW112038   0.909   3.879   3.823  0.0677 -0.6429 -2.3083
 3994SOL    HW212039   0.954   3.735   3.816  2.0102 -0.5832  3.4772
 3995SOL     OW12040   4.464   4.757   3.781 -0.6293 -0.1870  0.2336
 3995SOL    HW112041   4.501   4.781   3.697 -2.3480 -0.7005 -0.7173
 3995SOL    HW212042   4.525   4.693   3.817 -0.9671 -1.6244 -1.6368
 3996SOL     OW12043   1.654   1.981   0.806 -0.8014 -0.2236  0.5546
 3996SOL    HW112044   1.723   2.008   0.867 -1.2542  2.7742 -0.1155
 3996SOL    HW212045   1.699   1.971   0.722 -0.8440 -0.3624  0.5478
 3997SOL     OW12046   3.273   4.518   2.191  0.1870  0.0920  0.2647
 3997SOL    HW112047   3.202   4.566   2.149  0.3088  0.0701  0.0334
 3997SOL    HW212048   3.268   4.430   2.154  0.5403  0.1801 -0.0003
 3998SOL     OW12049   3.035   0.883   2.180  0.2211 -0.1334 -0.6170
 3998SOL    HW112050   3.130   0.876   2.194  0.1021  0.3020  0.5116
 3998SOL    HW212051   3.005   0.792   2.176  0.4885 -0.2951  0.5667
 3999SOL     OW12052   2.712   0.472   4.635  0.0403 -0.1905 -0.4408
 3999SOL    HW112053   2.648   0.436   4.574  0.5036 -0.9175 -0.5152
 3999SOL    HW212054   2.671   0.463   4.721 -0.1001 -0.3179 -0.5218
 4000SOL     OW12055   3.150   3.901   4.435 -0.0340 -0.1362  0.4063
 4000SOL    HW112056   3.245   3.892   4.425  0.3224  0.9621  2.3919
 4000SOL    HW212057   3.136   3.995   4.446 -1.2392 -0.3789  1.0826
 4001SOL     OW12058   3.463   2.614   2.835 -0.0260  0.0027  0.0133
 4001SOL    HW112059   3.549   2.654   2.820  0.5009 -1.3630 -0.8411
 4001SOL    HW212060   3.483   2.525   2.865 -1.1478  0.5502  2.6620
 4002SOL     OW12061   0.359   2.439   3.576 -0.0344  0.0977 -0.2699
 4002SOL    HW112062   0.359   2.505   3.507  1.6838 -0.3199 -0.7255
 4002SOL    HW212063   0.353   2.489   3.657  0.0181  0.7382 -0.6532
 4003SOL     OW12064   0.910   4.390   0.252  0.4868 -0.6836  0.4637
 4003SOL    HW112065   0.999   4.419   0.275  0.1008  1.2673 -0.2554
 4003SOL    HW212066   0.854   4.436   0.314 -0.0877 -1.0475  0.2143
 4004SOL     OW12067   0.425   3.792   4.239 -0.8703 -0.6652  0.5950
 4004SOL    HW112068   0.447   3.703   4.212 -2.4219 -1.4727  1.8172
 4004SOL    HW212069   0.472   3.805   4.321  0.0833  0.0143 -0.0377
 4005SOL     OW12070   0.379   0.522   1.878 -0.4457 -0.0328 -0.2940
 4005SOL    HW112071   0.464   0.489   1.851 -1.2890 -0.6224 -2.4542
 4005SOL    HW212072   0.397   0.577   1.955  1.9113  0.1955 -0.9473
 4006SOL     OW12073   0.387   1.827   1.166 -0.3397  0.3237  0.3106
 4006SOL    HW112074   0.302   1.870   1.168 -0.8906 -0.7140 -0.2016
 4006SOL    HW212075   0.449   1.896   1.192 -1.2925  1.1536  0.4524
 4007SOL     OW12076   0.549   3.707   3.714 -0.0692  0.0292 -0.0285
 4007SOL    HW112077   0.481   3.775   3.712 -0.4251 -0.3073 -2.3767
 4007SOL    HW212078   0.500   3.625   3.718  0.1801 -0.1820 -0.9389
 4008SOL     OW12079   0.694   3.410   4.091  0.6313  0.0947 -0.0878
 4008SOL    HW112080   0.673   3.486   4.037  1.6249 -0.1470 -0.8384
 4008SOL    HW212081   0.658   3.336   4.042  1.1100 -0.0804 -0.1740
 4009SOL     OW12082   1.171   1.105   4.668 -0.5688 -0.3874  0.1758
 4009SOL    HW112083   1.126   1.082   4.586 -0.7483  0.1646  0.1107
 4009SOL    HW212084   1.215   1.025   4.695 -1.9229 -1.0576  0.4609
 4010SOL     OW12085   3.042   2.599   0.130 -0.3441  0.6432 -0.4017
 4010SOL    HW112086   3.046   2.570   0.039 -1.3545  0.8358 -0.5248
 4010SOL    HW212087   2.954   2.575   0.159 -0.4149  1.5394  0.1807
 4011SOL     OW12088   0.868   4.376   1.575  0.0946 -0.9154  0.3354
 4011SOL    HW112089   0.873   4.437   1.502  0.1744  0.0087  1.1011
 4011SOL    HW212090   0.883   4.429   1.653  0.8720 -2.0282  0.9793
 4012SOL     OW12091   4.386   4.757   0.562 -0.3244  0.2427  0.0440
 4012SOL    HW112092   4.452   4.773   0.495  0.2323  0.9879  0.7408
 4012SOL    HW212093   4.342   4.677   0.534  0.6350 -0.0723 -0.6275
 4013SOL     OW12094   1.930   1.536   2.888  0.2027  0.1343  0.0581
 4013SOL    HW112095   1.875   1.562   2.814  0.3038  2.6432  0.7551
 4013SOL    HW212096   1.910   1.600   2.956  2.8088  0.2072  0.8750
 4014SOL     OW12097   0.438   4.209   0.694  0.3393  0.6199 -0.6694
 4014SOL    HW112098   0.402   4.156   0.765 -1.9164 -0.5875 -2.5818
 4014SOL    HW212099   0.478   4.146   0.634  1.6140  1.5491 -0.8345
 4015SOL     OW12100   1.345   3.621   4.378  0.0100 -0.1157 -0.0479
 4015SOL    HW112101   1.269   3.626   4.321 -0.0421  1.8609  0.1415
 4015SOL    HW212102   1.332   3.541   4.429 -0.9435 -0.8298 -1.3704
 4016SOL     OW12103   1.733   4.371   2.820 -0.0205 -0.4247  0.1248
 4016SOL    HW112104   1.758   4.444   2.876  0.3123 -0.2117 -0.2936
 4016SOL    HW212105   1.735   4.407   2.731 -2.1981 -0.2851  0.0746
 4017SOL     OW12106   3.273   4.357   0.288 -0.6394 -0.1426 -0.7225
 4017SOL    HW112107   3.320   4.278   0.261  0.6845  0.1215  0.6189
 4017SOL    HW212108   3.284   4.419   0.216 -2.9377 -1.5943 -2.4414
 4018SOL     OW12109   3.764   2.736   3.727  0.1542 -0.5203  0.3938
 4018SOL    HW112110   3.714   2.674   3.675 -0.4459 -0.5575  0.9986
 4018SOL    HW212111   3.770   2.695   3.814  0.4632 -0.1121  0.5700
 4019SOL     OW12112   4.921   1.692   1.223  1.1324  0.1562 -0.0490
 4019SOL    HW112113   4.835   1.660   1.195  0.9982 -0.7048  1.2848
 4019SOL    HW212114   4.962   1.724   1.142  1.0274 -2.7879 -1.3841
 4020SOL     OW12115   3.504   2.108   0.849  0.0737 -0.1971 -0.6123
 4020SOL    HW112116   3.500   2.119   0.754 -1.1100 -0.0529 -0.5617
 4020SOL    HW212117   3.576   2.046   0.864 -0.1385 -0.7081 -1.6487
 4021SOL     OW12118   3.894   4.641   2.046 -0.0832 -0.2731 -0.3714
 4021SOL    HW112119   3.894   4.586   2.124 -0.0570 -0.8148 -0.7503
 4021SOL    HW212120   3.810   4.687   2.049 -1.0015 -1.8356 -1.0936
 4022SOL     OW12121   3.728   0.630   1.559  0.0072 -0.2586  0.2591
 4022SOL    HW112122   3.655   0.604   1.502  0.5481 -1.0616 -0.0804
 4022SOL    HW212123   3.737   0.725   1.544 -0.5620 -0.2631 -0.1557
 4023SOL     OW12124   3.858   2.902   3.470 -0.3469  0.3653  0.6585
 4023SOL    HW112125   3.876   2.814   3.436 -1.2400  0.4507 -0.0953
 4023SOL    HW212126   3.863   2.958   3.393 -1.5082  0.7067  0.8037
 4024SOL     OW12127   4.445   1.326   3.063 -0.1502  0.1721 -0.3949
 4024SOL    HW112128   4.480   1.332   3.152  0.5896 -0.2299 -0.6552
 4024SOL    HW212129   4.518   1.293   3.011 -0.8712 -0.5176 -0.9770
 4025SOL     OW12130   1.100   1.138   3.069  0.4084  0.4183  0.1603
 4025SOL    HW112131   1.183   1.182   3.049  0.3037  0.5658  0.0466
 4025SOL    HW212132   1.046   1.153   2.991  0.5114 -0.2494 -0.0486
 4026SOL     OW12133   3.104   1.092   4.862 -0.3688  0.8401 -0.0624
 4026SOL    HW112134   3.199   1.098   4.851 -0.2543 -0.7969 -0.1762
 4026SOL    HW212135   3.092   1.060   4.951 -0.6646 -1.7627 -0.9773
 4027SOL     OW12136   4.822   1.618   1.573  0.2244  0.2970  0.5789
 4027SOL    HW112137   4.792   1.706   1.552 -0.0796 -0.0104 -0.3464
 4027SOL    HW212138   4.746   1.562   1.557  0.9452 -0.3564 -0.7298
 4028SOL     OW12139   1.351   1.235   0.864 -0.0818  0.4212 -0.2200
 4028SOL    HW112140   1.398   1.213   0.944  1.6817 -0.6416 -1.4675
 4028SOL    HW212141   1.368   1.328   0.850 -0.2367  0.5637  0.5135
 4029SOL     OW12142   4.238   1.330   4.042  0.4572 -0.0734 -0.0407
 4029SOL    HW112143   4.268   1.258   4.098  0.2069  0.3069  0.5934
 4029SOL    HW212144   4.200   1.393   4.103  0.5563  0.5386 -0.6031
 4030SOL     OW12145   4.834   3.243   2.115 -0.2784 -0.1152 -0.1458
 4030SOL    HW112146   4.879   3.160   2.128  1.1297  0.8524  1.6564
 4030SOL    HW212147   4.779   3.253   2.192  1.3024  1.6123  0.8502
 4031SOL     OW12148   3.592   0.879   1.564  0.4245  0.1448 -0.5651
 4031SOL    HW112149   3.613   0.969   1.541  0.4095  0.3500  0.2015
 4031SOL    HW212150   3.612   0.872   1.657 -1.1308 -0.1688 -0.2260
 4032SOL     OW12151   2.252   3.015   2.689 -0.0824  0.1171  0.0738
 4032SOL    HW112152   2.247   2.967   2.772 -4.4495  1.6237  0.9659
 4032SOL    HW212153   2.269   3.105   2.715 -1.0106  0.5222 -0.7010
 4033NA      NA12154   3.837   4.456   0.641  0.0414 -0.3611  0.3126
   4.98312   4.98312   4.98312
