Protein in water t=   0.00000 step= 0
12154
    1DT5    H5T    1   3.548   3.583   4.114
    1DT5    O5'    2   3.620   3.646   4.112
    1DT5    C5'    3   3.619   3.714   4.235
    1DT5   H5'1    4   3.592   3.653   4.321
    1DT5   H5'2    5   3.539   3.787   4.222
    1DT5    C4'    6   3.749   3.796   4.265
    1DT5    H4'    7   3.734   3.837   4.364
    1DT5    O4'    8   3.863   3.706   4.260
    1DT5    C1'    9   3.967   3.769   4.183
    1DT5    H1'   10   4.032   3.830   4.246
    1DT5     N1   11   4.056   3.661   4.126
    1DT5     C6   12   4.029   3.591   4.012
    1DT5     H6   13   3.942   3.618   3.956
    1DT5     C5   14   4.106   3.484   3.974
    1DT5     C7   15   4.076   3.402   3.854
    1DT5    H71   16   4.163   3.392   3.789
    1DT5    H72   17   4.046   3.299   3.876
    1DT5    H73   18   3.990   3.443   3.801
    1DT5     C4   19   4.211   3.432   4.063
    1DT5     O4   20   4.287   3.336   4.044
    1DT5     N3   21   4.240   3.514   4.166
    1DT5     H3   22   4.320   3.497   4.225
    1DT5     C2   23   4.166   3.629   4.203
    1DT5     O2   24   4.217   3.707   4.283
    1DT5    C3'   25   3.779   3.907   4.162
    1DT5    H3'   26   3.691   3.928   4.102
    1DT5    C2'   27   3.894   3.856   4.078
    1DT5   H2'1   28   3.846   3.797   4.000
    1DT5   H2'2   29   3.949   3.938   4.032
    1DT5    O3'   30   3.804   4.033   4.232
    2DT3      P   31   3.840   4.163   4.148
    2DT3    O1P   32   3.806   4.273   4.237
    2DT3    O2P   33   3.777   4.154   4.018
    2DT3    O5'   34   3.995   4.160   4.139
    2DT3    C5'   35   4.080   4.179   4.251
    2DT3   H5'1   36   4.037   4.118   4.330
    2DT3   H5'2   37   4.075   4.282   4.288
    2DT3    C4'   38   4.221   4.142   4.226
    2DT3    H4'   39   4.274   4.140   4.321
    2DT3    O4'   40   4.235   4.017   4.152
    2DT3    C1'   41   4.349   4.027   4.068
    2DT3    H1'   42   4.441   4.027   4.127
    2DT3     N1   43   4.355   3.925   3.960
    2DT3     C6   44   4.235   3.883   3.907
    2DT3     H6   45   4.145   3.921   3.953
    2DT3     C5   46   4.230   3.801   3.804
    2DT3     C7   47   4.093   3.770   3.737
    2DT3    H71   48   4.085   3.664   3.712
    2DT3    H72   49   4.013   3.803   3.803
    2DT3    H73   50   4.084   3.833   3.648
    2DT3     C4   51   4.354   3.746   3.743
    2DT3     O4   52   4.369   3.674   3.647
    2DT3     N3   53   4.468   3.788   3.805
    2DT3     H3   54   4.553   3.749   3.767
    2DT3     C2   55   4.477   3.867   3.915
    2DT3     O2   56   4.585   3.900   3.959
    2DT3    C3'   57   4.291   4.243   4.134
    2DT3    H3'   58   4.221   4.320   4.101
    2DT3    C2'   59   4.344   4.169   4.012
    2DT3   H2'1   60   4.269   4.165   3.934
    2DT3   H2'2   61   4.437   4.213   3.976
    2DT3    O3'   62   4.401   4.303   4.201
    2DT3    H3T   63   4.361   4.354   4.272
    3SOL     OW   64   2.759   0.650   0.810
    3SOL    HW1   65   2.847   0.674   0.781
    3SOL    HW2   66   2.737   0.714   0.878
    4SOL     OW   67   4.455   0.799   0.544
    4SOL    HW1   68   4.389   0.869   0.537
    4SOL    HW2   69   4.475   0.777   0.453
    5SOL     OW   70   2.922   1.749   0.633
    5SOL    HW1   71   2.986   1.680   0.650
    5SOL    HW2   72   2.838   1.703   0.624
    6SOL     OW   73   1.097   3.430   2.828
    6SOL    HW1   74   1.092   3.508   2.884
    6SOL    HW2   75   1.099   3.465   2.739
    7SOL     OW   76   1.971   2.676   1.060
    7SOL    HW1   77   1.964   2.581   1.067
    7SOL    HW2   78   1.902   2.709   1.118
    8SOL     OW   79   4.437   1.465   1.562
    8SOL    HW1   80   4.496   1.539   1.549
    8SOL    HW2   81   4.353   1.504   1.585
    9SOL     OW   82   4.712   1.547   2.314
    9SOL    HW1   83   4.765   1.519   2.388
    9SOL    HW2   84   4.665   1.624   2.347
   10SOL     OW   85   2.005   0.731   4.529
   10SOL    HW1   86   2.085   0.783   4.524
   10SOL    HW2   87   1.957   0.767   4.603
   11SOL     OW   88   0.100   4.825   4.425
   11SOL    HW1   89   0.060   4.846   4.509
   11SOL    HW2   90   0.180   4.877   4.423
   12SOL     OW   91   1.502   3.014   2.318
   12SOL    HW1   92   1.407   3.026   2.323
   12SOL    HW2   93   1.537   3.103   2.315
   13SOL     OW   94   0.716   1.343   1.377
   13SOL    HW1   95   0.705   1.363   1.470
   13SOL    HW2   96   0.645   1.282   1.357
   14SOL     OW   97   1.644   2.084   4.843
   14SOL    HW1   98   1.660   2.144   4.770
   14SOL    HW2   99   1.690   2.123   4.917
   15SOL     OW  100   4.933   0.624   2.328
   15SOL    HW1  101   4.862   0.658   2.273
   15SOL    HW2  102   0.004   0.702   2.356
   16SOL     OW  103   4.935   1.777   0.333
   16SOL    HW1  104   4.845   1.770   0.302
   16SOL    HW2  105   0.008   1.808   0.257
   17SOL     OW  106   2.799   2.206   0.000
   17SOL    HW1  107   2.836   2.170   0.081
   17SOL    HW2  108   2.756   2.287   0.027
   18SOL     OW  109   4.466   1.476   4.016
   18SOL    HW1  110   4.454   1.478   4.111
   18SOL    HW2  111   4.379   1.455   3.982
   19SOL     OW  112   1.798   0.387   0.141
   19SOL    HW1  113   1.751   0.413   0.061
   19SOL    HW2  114   1.828   0.470   0.178
   20SOL     OW  115   0.897   1.538   4.297
   20SOL    HW1  116   0.895   1.625   4.336
   20SOL    HW2  117   0.966   1.543   4.231
   21SOL     OW  118   1.837   4.261   3.231
   21SOL    HW1  119   1.758   4.276   3.180
   21SOL    HW2  120   1.852   4.166   3.226
   22SOL     OW  121   1.117   2.518   0.203
   22SOL    HW1  122   1.179   2.486   0.268
   22SOL    HW2  123   1.093   2.605   0.234
   23SOL     OW  124   0.586   3.238   4.200
   23SOL    HW1  125   0.607   3.238   4.106
   23SOL    HW2  126   0.650   3.178   4.238
   24SOL     OW  127   1.267   1.968   4.498
   24SOL    HW1  128   1.308   1.882   4.484
   24SOL    HW2  129   1.273   1.982   4.592
   25SOL     OW  130   0.544   2.132   3.761
   25SOL    HW1  131   0.606   2.059   3.758
   25SOL    HW2  132   0.597   2.207   3.790
   26SOL     OW  133   3.079   0.913   1.407
   26SOL    HW1  134   3.071   1.008   1.392
   26SOL    HW2  135   3.143   0.905   1.477
   27SOL     OW  136   0.510   0.192   0.073
   27SOL    HW1  137   0.589   0.232   0.111
   27SOL    HW2  138   0.439   0.250   0.102
   28SOL     OW  139   1.020   0.703   3.388
   28SOL    HW1  140   0.926   0.696   3.372
   28SOL    HW2  141   1.055   0.744   3.309
   29SOL     OW  142   2.130   1.056   2.079
   29SOL    HW1  143   2.218   1.061   2.042
   29SOL    HW2  144   2.073   1.086   2.008
   30SOL     OW  145   4.215   0.524   0.465
   30SOL    HW1  146   4.200   0.588   0.396
   30SOL    HW2  147   4.285   0.468   0.431
   31SOL     OW  148   4.034   1.355   4.134
   31SOL    HW1  149   4.086   1.365   4.054
   31SOL    HW2  150   4.096   1.322   4.199
   32SOL     OW  151   4.675   2.607   0.279
   32SOL    HW1  152   4.590   2.568   0.301
   32SOL    HW2  153   4.735   2.574   0.345
   33SOL     OW  154   3.512   1.028   4.112
   33SOL    HW1  155   3.426   0.994   4.089
   33SOL    HW2  156   3.544   1.069   4.031
   34SOL     OW  157   1.731   3.491   3.194
   34SOL    HW1  158   1.717   3.409   3.147
   34SOL    HW2  159   1.826   3.495   3.207
   35SOL     OW  160   2.997   4.357   4.712
   35SOL    HW1  161   2.981   4.268   4.681
   35SOL    HW2  162   3.015   4.347   4.806
   36SOL     OW  163   3.365   3.569   2.611
   36SOL    HW1  164   3.376   3.636   2.543
   36SOL    HW2  165   3.276   3.581   2.643
   37SOL     OW  166   1.039   1.603   2.790
   37SOL    HW1  167   0.986   1.632   2.864
   37SOL    HW2  168   1.007   1.655   2.715
   38SOL     OW  169   2.529   3.723   3.088
   38SOL    HW1  170   2.566   3.780   3.020
   38SOL    HW2  171   2.436   3.746   3.090
   39SOL     OW  172   4.089   4.223   2.031
   39SOL    HW1  173   4.128   4.237   2.117
   39SOL    HW2  174   4.144   4.155   1.991
   40SOL     OW  175   3.111   3.986   3.901
   40SOL    HW1  176   3.157   4.022   3.976
   40SOL    HW2  177   3.055   3.917   3.937
   41SOL     OW  178   1.660   1.869   1.072
   41SOL    HW1  179   1.693   1.827   0.993
   41SOL    HW2  180   1.651   1.798   1.135
   42SOL     OW  181   3.781   1.320   3.722
   42SOL    HW1  182   3.685   1.326   3.725
   42SOL    HW2  183   3.798   1.229   3.698
   43SOL     OW  184   2.580   0.383   4.161
   43SOL    HW1  185   2.546   0.467   4.131
   43SOL    HW2  186   2.561   0.381   4.255
   44SOL     OW  187   3.841   0.888   0.920
   44SOL    HW1  188   3.888   0.933   0.991
   44SOL    HW2  189   3.769   0.948   0.899
   45SOL     OW  190   4.609   4.217   3.328
   45SOL    HW1  191   4.694   4.242   3.291
   45SOL    HW2  192   4.545   4.262   3.273
   46SOL     OW  193   2.679   0.174   2.496
   46SOL    HW1  194   2.740   0.170   2.423
   46SOL    HW2  195   2.623   0.097   2.485
   47SOL     OW  196   4.331   4.697   2.284
   47SOL    HW1  197   4.381   4.617   2.305
   47SOL    HW2  198   4.397   4.758   2.251
   48SOL     OW  199   1.688   3.233   3.789
   48SOL    HW1  200   1.616   3.294   3.808
   48SOL    HW2  201   1.755   3.254   3.855
   49SOL     OW  202   4.325   4.190   0.053
   49SOL    HW1  203   4.350   4.237   0.133
   49SOL    HW2  204   4.401   4.197   4.971
   50SOL     OW  205   4.825   0.832   4.897
   50SOL    HW1  206   4.775   0.751   4.888
   50SOL    HW2  207   4.768   0.900   4.861
   51SOL     OW  208   0.877   1.741   2.621
   51SOL    HW1  209   0.804   1.778   2.572
   51SOL    HW2  210   0.945   1.807   2.617
   52SOL     OW  211   3.748   0.937   2.017
   52SOL    HW1  212   3.696   0.893   2.084
   52SOL    HW2  213   3.838   0.910   2.033
   53SOL     OW  214   2.297   2.215   4.012
   53SOL    HW1  215   2.322   2.186   4.099
   53SOL    HW2  216   2.363   2.281   3.989
   54SOL     OW  217   3.723   0.079   3.844
   54SOL    HW1  218   3.782   0.044   3.911
   54SOL    HW2  219   3.641   0.093   3.890
   55SOL     OW  220   3.059   4.560   3.259
   55SOL    HW1  221   3.088   4.471   3.278
   55SOL    HW2  222   3.049   4.601   3.345
   56SOL     OW  223   2.945   4.959   1.418
   56SOL    HW1  224   3.039   4.946   1.434
   56SOL    HW2  225   2.934   4.938   1.325
   57SOL     OW  226   3.862   2.847   4.559
   57SOL    HW1  227   3.918   2.803   4.495
   57SOL    HW2  228   3.854   2.936   4.525
   58SOL     OW  229   2.437   3.073   0.576
   58SOL    HW1  230   2.492   3.006   0.616
   58SOL    HW2  231   2.456   3.152   0.627
   59SOL     OW  232   4.107   0.214   1.129
   59SOL    HW1  233   4.150   0.273   1.191
   59SOL    HW2  234   4.017   0.205   1.163
   60SOL     OW  235   4.286   3.139   1.564
   60SOL    HW1  236   4.295   3.226   1.527
   60SOL    HW2  237   4.285   3.152   1.659
   61SOL     OW  238   0.311   2.453   4.880
   61SOL    HW1  239   0.394   2.454   4.833
   61SOL    HW2  240   0.333   2.427   4.969
   62SOL     OW  241   4.914   4.351   1.285
   62SOL    HW1  242   4.874   4.296   1.218
   62SOL    HW2  243   4.933   4.292   1.357
   63SOL     OW  244   1.147   3.464   4.495
   63SOL    HW1  245   1.131   3.558   4.497
   63SOL    HW2  246   1.074   3.426   4.545
   64SOL     OW  247   1.345   3.615   1.689
   64SOL    HW1  248   1.324   3.536   1.640
   64SOL    HW2  249   1.439   3.607   1.708
   65SOL     OW  250   4.584   1.551   4.395
   65SOL    HW1  251   4.646   1.621   4.415
   65SOL    HW2  252   4.640   1.478   4.367
   66SOL     OW  253   4.301   4.841   2.945
   66SOL    HW1  254   4.304   4.936   2.961
   66SOL    HW2  255   4.208   4.821   2.936
   67SOL     OW  256   3.682   2.790   0.733
   67SOL    HW1  257   3.650   2.776   0.823
   67SOL    HW2  258   3.773   2.818   0.744
   68SOL     OW  259   4.374   0.827   3.453
   68SOL    HW1  260   4.285   0.813   3.420
   68SOL    HW2  261   4.430   0.817   3.375
   69SOL     OW  262   2.298   2.596   0.039
   69SOL    HW1  263   2.388   2.572   0.057
   69SOL    HW2  264   2.263   2.625   0.124
   70SOL     OW  265   2.126   4.097   2.335
   70SOL    HW1  266   2.061   4.091   2.404
   70SOL    HW2  267   2.181   4.019   2.346
   71SOL     OW  268   3.919   2.826   4.009
   71SOL    HW1  269   3.829   2.794   4.007
   71SOL    HW2  270   3.962   2.782   3.936
   72SOL     OW  271   0.621   3.405   3.134
   72SOL    HW1  272   0.635   3.338   3.200
   72SOL    HW2  273   0.616   3.358   3.051
   73SOL     OW  274   0.801   3.106   2.970
   73SOL    HW1  275   0.809   3.059   2.887
   73SOL    HW2  276   0.805   3.038   3.037
   74SOL     OW  277   1.783   4.068   3.898
   74SOL    HW1  278   1.735   4.140   3.858
   74SOL    HW2  279   1.724   4.033   3.965
   75SOL     OW  280   1.099   2.582   4.006
   75SOL    HW1  281   1.100   2.588   3.910
   75SOL    HW2  282   1.165   2.646   4.035
   76SOL     OW  283   0.097   1.167   3.917
   76SOL    HW1  284   0.112   1.261   3.921
   76SOL    HW2  285   0.021   1.153   3.974
   77SOL     OW  286   0.288   3.011   2.578
   77SOL    HW1  287   0.284   3.070   2.653
   77SOL    HW2  288   0.238   3.055   2.510
   78SOL     OW  289   4.246   0.153   2.796
   78SOL    HW1  290   4.314   0.117   2.738
   78SOL    HW2  291   4.175   0.177   2.738
   79SOL     OW  292   4.873   0.542   3.281
   79SOL    HW1  293   4.865   0.587   3.365
   79SOL    HW2  294   4.932   0.597   3.230
   80SOL     OW  295   4.309   2.631   3.703
   80SOL    HW1  296   4.296   2.726   3.696
   80SOL    HW2  297   4.361   2.620   3.783
   81SOL     OW  298   3.344   1.220   1.413
   81SOL    HW1  299   3.250   1.228   1.432
   81SOL    HW2  300   3.375   1.151   1.471
   82SOL     OW  301   4.637   1.764   1.001
   82SOL    HW1  302   4.689   1.728   0.929
   82SOL    HW2  303   4.647   1.701   1.072
   83SOL     OW  304   3.112   1.236   4.789
   83SOL    HW1  305   3.107   1.266   4.880
   83SOL    HW2  306   3.101   1.316   4.737
   84SOL     OW  307   4.214   1.827   2.409
   84SOL    HW1  308   4.279   1.762   2.438
   84SOL    HW2  309   4.245   1.854   2.323
   85SOL     OW  310   4.795   0.295   3.201
   85SOL    HW1  311   4.753   0.256   3.277
   85SOL    HW2  312   4.825   0.381   3.231
   86SOL     OW  313   1.977   1.386   2.646
   86SOL    HW1  314   1.998   1.445   2.574
   86SOL    HW2  315   2.006   1.300   2.615
   87SOL     OW  316   3.500   1.655   3.677
   87SOL    HW1  317   3.419   1.616   3.644
   87SOL    HW2  318   3.561   1.650   3.603
   88SOL     OW  319   0.778   2.490   1.836
   88SOL    HW1  320   0.764   2.506   1.742
   88SOL    HW2  321   0.870   2.513   1.850
   89SOL     OW  322   3.917   3.790   4.594
   89SOL    HW1  323   3.851   3.756   4.656
   89SOL    HW2  324   3.881   3.874   4.565
   90SOL     OW  325   2.624   3.268   3.060
   90SOL    HW1  326   2.646   3.176   3.041
   90SOL    HW2  327   2.556   3.263   3.127
   91SOL     OW  328   0.095   3.827   1.837
   91SOL    HW1  329   0.184   3.794   1.846
   91SOL    HW2  330   0.048   3.758   1.790
   92SOL     OW  331   2.934   4.448   1.494
   92SOL    HW1  332   2.878   4.471   1.568
   92SOL    HW2  333   2.995   4.522   1.487
   93SOL     OW  334   0.403   4.799   4.452
   93SOL    HW1  335   0.391   4.707   4.477
   93SOL    HW2  336   0.420   4.796   4.358
   94SOL     OW  337   4.189   1.367   3.452
   94SOL    HW1  338   4.271   1.382   3.499
   94SOL    HW2  339   4.180   1.272   3.449
   95SOL     OW  340   1.696   1.271   1.375
   95SOL    HW1  341   1.615   1.221   1.387
   95SOL    HW2  342   1.760   1.207   1.345
   96SOL     OW  343   3.001   4.666   3.511
   96SOL    HW1  344   2.914   4.689   3.545
   96SOL    HW2  345   3.022   4.583   3.554
   97SOL     OW  346   0.905   3.597   1.462
   97SOL    HW1  347   0.955   3.579   1.382
   97SOL    HW2  348   0.937   3.683   1.491
   98SOL     OW  349   0.640   0.837   1.838
   98SOL    HW1  350   0.729   0.859   1.810
   98SOL    HW2  351   0.595   0.808   1.759
   99SOL     OW  352   0.312   4.702   0.575
   99SOL    HW1  353   0.311   4.625   0.632
   99SOL    HW2  354   0.395   4.696   0.528
  100SOL     OW  355   3.585   4.234   2.253
  100SOL    HW1  356   3.501   4.219   2.210
  100SOL    HW2  357   3.644   4.261   2.182
  101SOL     OW  358   3.487   4.532   2.941
  101SOL    HW1  359   3.574   4.509   2.908
  101SOL    HW2  360   3.485   4.492   3.029
  102SOL     OW  361   3.929   0.371   4.410
  102SOL    HW1  362   4.013   0.326   4.403
  102SOL    HW2  363   3.874   0.311   4.461
  103SOL     OW  364   0.583   1.682   2.210
  103SOL    HW1  365   0.583   1.770   2.172
  103SOL    HW2  366   0.492   1.669   2.238
  104SOL     OW  367   1.704   3.971   0.465
  104SOL    HW1  368   1.654   3.994   0.543
  104SOL    HW2  369   1.778   3.920   0.498
  105SOL     OW  370   0.661   3.960   0.582
  105SOL    HW1  371   0.602   4.028   0.613
  105SOL    HW2  372   0.638   3.883   0.634
  106SOL     OW  373   3.135   3.447   0.400
  106SOL    HW1  374   3.219   3.402   0.410
  106SOL    HW2  375   3.157   3.529   0.356
  107SOL     OW  376   0.073   3.949   1.594
  107SOL    HW1  377   0.168   3.946   1.599
  107SOL    HW2  378   0.043   3.916   1.679
  108SOL     OW  379   1.178   0.101   3.267
  108SOL    HW1  380   1.112   0.089   3.198
  108SOL    HW2  381   1.229   0.021   3.266
  109SOL     OW  382   4.491   1.348   0.288
  109SOL    HW1  383   4.443   1.426   0.314
  109SOL    HW2  384   4.548   1.328   0.363
  110SOL     OW  385   1.174   1.033   4.832
  110SOL    HW1  386   1.096   1.063   4.786
  110SOL    HW2  387   1.142   0.969   4.896
  111SOL     OW  388   2.022   4.608   4.738
  111SOL    HW1  389   2.041   4.676   4.803
  111SOL    HW2  390   2.034   4.652   4.653
  112SOL     OW  391   2.225   3.668   3.386
  112SOL    HW1  392   2.221   3.752   3.431
  112SOL    HW2  393   2.254   3.690   3.297
  113SOL     OW  394   4.155   3.713   0.318
  113SOL    HW1  395   4.180   3.738   0.229
  113SOL    HW2  396   4.067   3.677   0.308
  114SOL     OW  397   2.013   4.858   4.522
  114SOL    HW1  398   1.921   4.882   4.537
  114SOL    HW2  399   2.061   4.941   4.530
  115SOL     OW  400   0.854   0.488   1.818
  115SOL    HW1  401   0.788   0.509   1.884
  115SOL    HW2  402   0.883   0.573   1.786
  116SOL     OW  403   3.689   1.659   2.110
  116SOL    HW1  404   3.606   1.612   2.106
  116SOL    HW2  405   3.756   1.592   2.095
  117SOL     OW  406   3.887   4.378   0.930
  117SOL    HW1  407   3.929   4.458   0.963
  117SOL    HW2  408   3.825   4.409   0.865
  118SOL     OW  409   0.625   0.086   2.089
  118SOL    HW1  410   0.639   0.143   2.165
  118SOL    HW2  411   0.714   0.063   2.060
  119SOL     OW  412   3.311   3.294   1.388
  119SOL    HW1  413   3.341   3.221   1.442
  119SOL    HW2  414   3.391   3.338   1.360
  120SOL     OW  415   0.769   2.650   4.564
  120SOL    HW1  416   0.710   2.706   4.514
  120SOL    HW2  417   0.829   2.613   4.499
  121SOL     OW  418   4.002   4.928   1.380
  121SOL    HW1  419   3.994   0.020   1.313
  121SOL    HW2  420   3.974   4.971   1.461
  122SOL     OW  421   0.828   1.131   4.061
  122SOL    HW1  422   0.809   1.038   4.062
  122SOL    HW2  423   0.920   1.137   4.088
  123SOL     OW  424   1.795   1.723   2.569
  123SOL    HW1  425   1.807   1.683   2.655
  123SOL    HW2  426   1.750   1.805   2.586
  124SOL     OW  427   2.739   1.896   2.536
  124SOL    HW1  428   2.677   1.855   2.476
  124SOL    HW2  429   2.791   1.954   2.481
  125SOL     OW  430   1.089   0.450   0.067
  125SOL    HW1  431   1.006   0.433   0.022
  125SOL    HW2  432   1.082   0.402   0.149
  126SOL     OW  433   1.486   1.638   4.698
  126SOL    HW1  434   1.516   1.668   4.612
  126SOL    HW2  435   1.533   1.555   4.711
  127SOL     OW  436   2.038   1.782   4.283
  127SOL    HW1  437   2.056   1.700   4.238
  127SOL    HW2  438   1.955   1.812   4.248
  128SOL     OW  439   1.725   2.473   1.535
  128SOL    HW1  440   1.651   2.420   1.561
  128SOL    HW2  441   1.742   2.448   1.444
  129SOL     OW  442   0.894   1.713   0.507
  129SOL    HW1  443   0.942   1.667   0.576
  129SOL    HW2  444   0.825   1.652   0.481
  130SOL     OW  445   0.524   1.801   4.803
  130SOL    HW1  446   0.603   1.780   4.752
  130SOL    HW2  447   0.543   1.767   4.890
  131SOL     OW  448   2.143   0.083   1.550
  131SOL    HW1  449   2.159   0.130   1.468
  131SOL    HW2  450   2.203   0.009   1.547
  132SOL     OW  451   0.774   4.619   2.127
  132SOL    HW1  452   0.700   4.673   2.157
  132SOL    HW2  453   0.754   4.597   2.037
  133SOL     OW  454   3.074   1.380   3.978
  133SOL    HW1  455   3.164   1.375   4.011
  133SOL    HW2  456   3.083   1.414   3.889
  134SOL     OW  457   0.169   0.909   0.792
  134SOL    HW1  458   0.229   0.980   0.816
  134SOL    HW2  459   0.216   0.830   0.817
  135SOL     OW  460   0.022   1.986   2.806
  135SOL    HW1  461   4.947   2.003   2.886
  135SOL    HW2  462   0.110   2.017   2.827
  136SOL     OW  463   2.311   0.574   3.448
  136SOL    HW1  464   2.229   0.535   3.479
  136SOL    HW2  465   2.284   0.652   3.401
  137SOL     OW  466   4.710   1.390   4.101
  137SOL    HW1  467   4.777   1.458   4.089
  137SOL    HW2  468   4.636   1.420   4.048
  138SOL     OW  469   3.511   4.123   4.898
  138SOL    HW1  470   3.583   4.112   4.960
  138SOL    HW2  471   3.445   4.060   4.926
  139SOL     OW  472   1.382   3.572   4.128
  139SOL    HW1  473   1.424   3.584   4.213
  139SOL    HW2  474   1.291   3.551   4.148
  140SOL     OW  475   0.017   3.245   3.921
  140SOL    HW1  476   0.069   3.170   3.951
  140SOL    HW2  477   4.945   3.274   3.999
  141SOL     OW  478   4.564   4.744   3.682
  141SOL    HW1  479   4.588   4.719   3.771
  141SOL    HW2  480   4.648   4.757   3.638
  142SOL     OW  481   4.972   4.294   4.154
  142SOL    HW1  482   4.922   4.215   4.172
  142SOL    HW2  483   4.960   4.308   4.060
  143SOL     OW  484   2.941   2.557   0.944
  143SOL    HW1  485   2.988   2.640   0.953
  143SOL    HW2  486   3.010   2.491   0.938
  144SOL     OW  487   4.953   0.308   2.610
  144SOL    HW1  488   0.061   0.271   2.637
  144SOL    HW2  489   4.952   0.395   2.648
  145SOL     OW  490   3.091   0.762   0.063
  145SOL    HW1  491   3.145   0.811   4.976
  145SOL    HW2  492   3.151   0.743   0.135
  146SOL     OW  493   4.227   2.572   2.850
  146SOL    HW1  494   4.225   2.610   2.938
  146SOL    HW2  495   4.319   2.572   2.826
  147SOL     OW  496   3.419   0.682   1.521
  147SOL    HW1  497   3.456   0.594   1.529
  147SOL    HW2  498   3.351   0.673   1.455
  148SOL     OW  499   2.313   3.621   2.685
  148SOL    HW1  500   2.382   3.554   2.685
  148SOL    HW2  501   2.360   3.704   2.676
  149SOL     OW  502   0.859   2.066   2.499
  149SOL    HW1  503   0.940   2.102   2.463
  149SOL    HW2  504   0.789   2.115   2.456
  150SOL     OW  505   4.712   3.127   2.975
  150SOL    HW1  506   4.644   3.113   3.042
  150SOL    HW2  507   4.662   3.147   2.895
  151SOL     OW  508   1.767   4.782   3.086
  151SOL    HW1  509   1.780   4.710   3.023
  151SOL    HW2  510   1.730   4.853   3.034
  152SOL     OW  511   4.277   4.249   0.691
  152SOL    HW1  512   4.202   4.199   0.722
  152SOL    HW2  513   4.336   4.184   0.654
  153SOL     OW  514   3.438   1.419   2.520
  153SOL    HW1  515   3.485   1.494   2.556
  153SOL    HW2  516   3.387   1.385   2.594
  154SOL     OW  517   4.742   1.288   1.762
  154SOL    HW1  518   4.814   1.275   1.825
  154SOL    HW2  519   4.785   1.288   1.677
  155SOL     OW  520   4.037   4.250   4.648
  155SOL    HW1  521   4.118   4.201   4.636
  155SOL    HW2  522   4.010   4.275   4.560
  156SOL     OW  523   2.259   2.385   3.216
  156SOL    HW1  524   2.346   2.424   3.217
  156SOL    HW2  525   2.272   2.296   3.183
  157SOL     OW  526   3.896   2.578   4.239
  157SOL    HW1  527   3.892   2.485   4.218
  157SOL    HW2  528   3.944   2.617   4.165
  158SOL     OW  529   4.662   0.912   0.697
  158SOL    HW1  530   4.602   0.906   0.772
  158SOL    HW2  531   4.610   0.884   0.622
  159SOL     OW  532   4.525   3.944   3.480
  159SOL    HW1  533   4.547   3.952   3.573
  159SOL    HW2  534   4.562   4.023   3.440
  160SOL     OW  535   1.646   3.291   1.417
  160SOL    HW1  536   1.667   3.250   1.333
  160SOL    HW2  537   1.577   3.236   1.454
  161SOL     OW  538   0.486   3.632   3.551
  161SOL    HW1  539   0.478   3.610   3.458
  161SOL    HW2  540   0.553   3.573   3.584
  162SOL     OW  541   0.561   4.063   3.284
  162SOL    HW1  542   0.512   4.116   3.347
  162SOL    HW2  543   0.587   3.985   3.334
  163SOL     OW  544   4.554   1.500   1.216
  163SOL    HW1  545   4.471   1.456   1.232
  163SOL    HW2  546   4.569   1.490   1.122
  164SOL     OW  547   1.926   3.543   3.768
  164SOL    HW1  548   2.011   3.581   3.744
  164SOL    HW2  549   1.896   3.500   3.688
  165SOL     OW  550   1.383   3.354   3.235
  165SOL    HW1  551   1.445   3.396   3.175
  165SOL    HW2  552   1.420   3.267   3.250
  166SOL     OW  553   2.796   0.125   1.721
  166SOL    HW1  554   2.763   0.125   1.631
  166SOL    HW2  555   2.749   0.197   1.764
  167SOL     OW  556   0.466   2.901   2.916
  167SOL    HW1  557   0.397   2.964   2.891
  167SOL    HW2  558   0.465   2.901   3.011
  168SOL     OW  559   4.823   0.101   1.264
  168SOL    HW1  560   4.760   0.119   1.195
  168SOL    HW2  561   4.792   0.020   1.304
  169SOL     OW  562   0.171   0.178   2.976
  169SOL    HW1  563   0.240   0.128   3.020
  169SOL    HW2  564   0.126   0.223   3.048
  170SOL     OW  565   4.463   2.115   1.551
  170SOL    HW1  566   4.538   2.089   1.498
  170SOL    HW2  567   4.392   2.125   1.488
  171SOL     OW  568   4.370   4.339   0.292
  171SOL    HW1  569   4.417   4.321   0.373
  171SOL    HW2  570   4.346   4.432   0.298
  172SOL     OW  571   1.602   2.107   3.985
  172SOL    HW1  572   1.698   2.098   3.985
  172SOL    HW2  573   1.581   2.126   3.893
  173SOL     OW  574   0.005   0.924   2.570
  173SOL    HW1  575   4.916   0.859   2.544
  173SOL    HW2  576   4.930   0.996   2.606
  174SOL     OW  577   2.620   3.340   0.369
  174SOL    HW1  578   2.635   3.352   0.275
  174SOL    HW2  579   2.631   3.246   0.383
  175SOL     OW  580   1.368   2.295   1.139
  175SOL    HW1  581   1.406   2.212   1.108
  175SOL    HW2  582   1.397   2.360   1.075
  176SOL     OW  583   4.818   2.098   1.944
  176SOL    HW1  584   4.830   2.072   2.035
  176SOL    HW2  585   4.731   2.137   1.941
  177SOL     OW  586   3.585   1.685   0.712
  177SOL    HW1  587   3.634   1.605   0.693
  177SOL    HW2  588   3.522   1.693   0.640
  178SOL     OW  589   3.910   2.091   3.592
  178SOL    HW1  590   3.994   2.084   3.546
  178SOL    HW2  591   3.894   2.003   3.625
  179SOL     OW  592   1.285   1.721   3.933
  179SOL    HW1  593   1.193   1.697   3.935
  179SOL    HW2  594   1.294   1.790   3.999
  180SOL     OW  595   2.819   3.392   3.238
  180SOL    HW1  596   2.754   3.356   3.178
  180SOL    HW2  597   2.808   3.487   3.232
  181SOL     OW  598   1.024   3.780   1.649
  181SOL    HW1  599   1.026   3.859   1.596
  181SOL    HW2  600   1.107   3.780   1.697
  182SOL     OW  601   1.316   0.701   0.427
  182SOL    HW1  602   1.319   0.796   0.441
  182SOL    HW2  603   1.379   0.686   0.356
  183SOL     OW  604   0.538   1.949   3.401
  183SOL    HW1  605   0.477   1.980   3.468
  183SOL    HW2  606   0.584   1.876   3.442
  184SOL     OW  607   1.530   3.086   3.349
  184SOL    HW1  608   1.582   3.126   3.418
  184SOL    HW2  609   1.589   3.024   3.307
  185SOL     OW  610   0.398   4.107   3.498
  185SOL    HW1  611   0.310   4.072   3.488
  185SOL    HW2  612   0.439   4.053   3.566
  186SOL     OW  613   4.014   4.907   0.177
  186SOL    HW1  614   3.961   4.909   0.097
  186SOL    HW2  615   4.057   0.016   0.179
  187SOL     OW  616   3.815   0.620   4.807
  187SOL    HW1  617   3.795   0.595   4.717
  187SOL    HW2  618   3.909   0.608   4.816
  188SOL     OW  619   1.054   0.935   1.803
  188SOL    HW1  620   1.037   1.026   1.828
  188SOL    HW2  621   1.145   0.934   1.773
  189SOL     OW  622   1.607   0.655   0.733
  189SOL    HW1  623   1.587   0.748   0.747
  189SOL    HW2  624   1.531   0.609   0.767
  190SOL     OW  625   3.039   0.821   1.058
  190SOL    HW1  626   3.118   0.873   1.044
  190SOL    HW2  627   2.972   0.865   1.006
  191SOL     OW  628   4.545   0.486   1.885
  191SOL    HW1  629   4.550   0.579   1.909
  191SOL    HW2  630   4.463   0.456   1.925
  192SOL     OW  631   1.946   2.252   0.820
  192SOL    HW1  632   2.022   2.214   0.864
  192SOL    HW2  633   1.893   2.176   0.795
  193SOL     OW  634   4.593   3.298   0.534
  193SOL    HW1  635   4.536   3.307   0.611
  193SOL    HW2  636   4.681   3.290   0.570
  194SOL     OW  637   0.141   3.418   3.305
  194SOL    HW1  638   0.195   3.480   3.355
  194SOL    HW2  639   0.053   3.429   3.342
  195SOL     OW  640   1.876   1.445   4.133
  195SOL    HW1  641   1.810   1.514   4.132
  195SOL    HW2  642   1.890   1.427   4.226
  196SOL     OW  643   0.933   4.262   2.130
  196SOL    HW1  644   0.990   4.317   2.077
  196SOL    HW2  645   0.958   4.172   2.107
  197SOL     OW  646   4.214   1.761   3.086
  197SOL    HW1  647   4.164   1.679   3.083
  197SOL    HW2  648   4.203   1.798   2.999
  198SOL     OW  649   0.545   3.177   3.281
  198SOL    HW1  650   0.508   3.149   3.198
  198SOL    HW2  651   0.589   3.100   3.316
  199SOL     OW  652   3.486   3.070   1.270
  199SOL    HW1  653   3.576   3.104   1.277
  199SOL    HW2  654   3.493   2.979   1.296
  200SOL     OW  655   2.736   0.492   3.136
  200SOL    HW1  656   2.687   0.520   3.214
  200SOL    HW2  657   2.789   0.568   3.113
  201SOL     OW  658   3.651   1.620   2.591
  201SOL    HW1  659   3.601   1.699   2.572
  201SOL    HW2  660   3.675   1.585   2.506
  202SOL     OW  661   0.892   2.986   3.593
  202SOL    HW1  662   0.883   3.010   3.685
  202SOL    HW2  663   0.986   2.974   3.581
  203SOL     OW  664   0.004   2.612   1.948
  203SOL    HW1  665   0.099   2.600   1.957
  203SOL    HW2  666   4.946   2.600   2.037
  204SOL     OW  667   0.875   3.063   3.865
  204SOL    HW1  668   0.898   3.007   3.940
  204SOL    HW2  669   0.912   3.148   3.887
  205SOL     OW  670   3.448   4.528   2.521
  205SOL    HW1  671   3.389   4.585   2.569
  205SOL    HW2  672   3.391   4.478   2.462
  206SOL     OW  673   0.357   3.371   2.677
  206SOL    HW1  674   0.323   3.286   2.703
  206SOL    HW2  675   0.364   3.421   2.758
  207SOL     OW  676   3.229   2.127   0.049
  207SOL    HW1  677   3.283   2.204   0.030
  207SOL    HW2  678   3.153   2.136   4.967
  208SOL     OW  679   0.847   4.640   3.075
  208SOL    HW1  680   0.914   4.572   3.072
  208SOL    HW2  681   0.782   4.607   3.138
  209SOL     OW  682   4.277   4.005   0.985
  209SOL    HW1  683   4.247   4.095   0.975
  209SOL    HW2  684   4.201   3.951   0.961
  210SOL     OW  685   3.550   0.532   4.522
  210SOL    HW1  686   3.524   0.532   4.430
  210SOL    HW2  687   3.646   0.531   4.519
  211SOL     OW  688   1.160   2.963   3.728
  211SOL    HW1  689   1.255   2.959   3.717
  211SOL    HW2  690   1.146   2.956   3.823
  212SOL     OW  691   0.799   3.839   1.096
  212SOL    HW1  692   0.793   3.780   1.021
  212SOL    HW2  693   0.713   3.831   1.139
  213SOL     OW  694   0.748   2.338   2.426
  213SOL    HW1  695   0.698   2.420   2.420
  213SOL    HW2  696   0.820   2.359   2.486
  214SOL     OW  697   4.221   3.551   2.836
  214SOL    HW1  698   4.172   3.628   2.809
  214SOL    HW2  699   4.153   3.487   2.860
  215SOL     OW  700   1.244   1.731   4.726
  215SOL    HW1  701   1.317   1.673   4.748
  215SOL    HW2  702   1.177   1.710   4.791
  216SOL     OW  703   3.440   0.587   3.974
  216SOL    HW1  704   3.492   0.582   3.894
  216SOL    HW2  705   3.368   0.525   3.959
  217SOL     OW  706   3.323   2.842   1.917
  217SOL    HW1  707   3.323   2.747   1.919
  217SOL    HW2  708   3.330   2.868   2.009
  218SOL     OW  709   3.688   2.479   0.462
  218SOL    HW1  710   3.720   2.419   0.394
  218SOL    HW2  711   3.683   2.425   0.541
  219SOL     OW  712   4.666   3.456   4.654
  219SOL    HW1  713   4.654   3.430   4.745
  219SOL    HW2  714   4.756   3.488   4.650
  220SOL     OW  715   2.523   2.267   4.197
  220SOL    HW1  716   2.471   2.333   4.242
  220SOL    HW2  717   2.614   2.292   4.213
  221SOL     OW  718   4.024   3.137   1.869
  221SOL    HW1  719   4.100   3.080   1.854
  221SOL    HW2  720   4.059   3.211   1.918
  222SOL     OW  721   4.968   3.446   0.021
  222SOL    HW1  722   0.027   3.407   4.916
  222SOL    HW2  723   4.969   3.540   0.005
  223SOL     OW  724   1.173   2.214   0.535
  223SOL    HW1  725   1.122   2.197   0.455
  223SOL    HW2  726   1.138   2.152   0.599
  224SOL     OW  727   2.455   2.428   4.841
  224SOL    HW1  728   2.382   2.486   4.821
  224SOL    HW2  729   2.420   2.340   4.825
  225SOL     OW  730   2.174   1.855   3.079
  225SOL    HW1  731   2.183   1.781   3.139
  225SOL    HW2  732   2.258   1.860   3.033
  226SOL     OW  733   1.194   1.434   3.385
  226SOL    HW1  734   1.117   1.467   3.432
  226SOL    HW2  735   1.249   1.396   3.453
  227SOL     OW  736   4.905   3.397   1.244
  227SOL    HW1  737   4.896   3.388   1.339
  227SOL    HW2  738   0.006   3.345   1.221
  228SOL     OW  739   2.752   3.112   4.763
  228SOL    HW1  740   2.797   3.111   4.679
  228SOL    HW2  741   2.728   3.021   4.779
  229SOL     OW  742   4.033   2.573   0.035
  229SOL    HW1  743   4.115   2.594   4.967
  229SOL    HW2  744   4.052   2.586   0.128
  230SOL     OW  745   2.476   4.829   4.311
  230SOL    HW1  746   2.429   4.911   4.297
  230SOL    HW2  747   2.430   4.787   4.385
  231SOL     OW  748   3.688   4.280   3.762
  231SOL    HW1  749   3.719   4.223   3.832
  231SOL    HW2  750   3.594   4.262   3.757
  232SOL     OW  751   3.490   2.646   3.156
  232SOL    HW1  752   3.487   2.588   3.080
  232SOL    HW2  753   3.442   2.724   3.129
  233SOL     OW  754   1.812   1.141   3.156
  233SOL    HW1  755   1.823   1.218   3.100
  233SOL    HW2  756   1.758   1.171   3.229
  234SOL     OW  757   0.457   1.044   4.200
  234SOL    HW1  758   0.482   0.975   4.139
  234SOL    HW2  759   0.413   1.109   4.144
  235SOL     OW  760   2.423   2.092   3.158
  235SOL    HW1  761   2.330   2.087   3.179
  235SOL    HW2  762   2.432   2.046   3.075
  236SOL     OW  763   3.138   0.037   2.298
  236SOL    HW1  764   3.166   0.096   2.229
  236SOL    HW2  765   3.183   0.067   2.376
  237SOL     OW  766   0.778   2.114   3.333
  237SOL    HW1  767   0.700   2.144   3.285
  237SOL    HW2  768   0.754   2.027   3.366
  238SOL     OW  769   1.419   1.170   0.267
  238SOL    HW1  770   1.341   1.198   0.219
  238SOL    HW2  771   1.454   1.098   0.215
  239SOL     OW  772   4.681   0.134   2.490
  239SOL    HW1  773   4.727   0.201   2.441
  239SOL    HW2  774   4.686   0.163   2.582
  240SOL     OW  775   2.322   4.585   0.210
  240SOL    HW1  776   2.412   4.561   0.230
  240SOL    HW2  777   2.277   4.585   0.294
  241SOL     OW  778   1.095   4.172   2.380
  241SOL    HW1  779   1.156   4.139   2.314
  241SOL    HW2  780   1.103   4.267   2.374
  242SOL     OW  781   1.371   0.522   0.854
  242SOL    HW1  782   1.432   0.449   0.846
  242SOL    HW2  783   1.314   0.499   0.927
  243SOL     OW  784   2.947   1.627   2.832
  243SOL    HW1  785   3.035   1.594   2.855
  243SOL    HW2  786   2.902   1.636   2.916
  244SOL     OW  787   0.342   0.487   3.741
  244SOL    HW1  788   0.397   0.478   3.663
  244SOL    HW2  789   0.312   0.398   3.760
  245SOL     OW  790   1.414   3.838   1.410
  245SOL    HW1  791   1.332   3.826   1.363
  245SOL    HW2  792   1.479   3.794   1.355
  246SOL     OW  793   4.004   2.142   1.943
  246SOL    HW1  794   3.947   2.066   1.957
  246SOL    HW2  795   3.978   2.177   1.858
  247SOL     OW  796   1.932   1.167   2.249
  247SOL    HW1  797   1.986   1.109   2.196
  247SOL    HW2  798   1.993   1.231   2.286
  248SOL     OW  799   4.469   4.470   3.961
  248SOL    HW1  800   4.533   4.437   4.024
  248SOL    HW2  801   4.397   4.504   4.014
  249SOL     OW  802   2.520   2.915   1.926
  249SOL    HW1  803   2.597   2.890   1.876
  249SOL    HW2  804   2.512   2.847   1.993
  250SOL     OW  805   0.477   1.997   1.758
  250SOL    HW1  806   0.487   1.902   1.758
  250SOL    HW2  807   0.551   2.030   1.708
  251SOL     OW  808   3.560   1.067   1.570
  251SOL    HW1  809   3.570   0.999   1.503
  251SOL    HW2  810   3.627   1.131   1.549
  252SOL     OW  811   0.015   2.842   0.282
  252SOL    HW1  812   0.030   2.749   0.262
  252SOL    HW2  813   4.902   2.859   0.252
  253SOL     OW  814   3.186   1.935   4.768
  253SOL    HW1  815   3.144   1.998   4.827
  253SOL    HW2  816   3.126   1.928   4.694
  254SOL     OW  817   0.839   2.606   0.749
  254SOL    HW1  818   0.928   2.590   0.719
  254SOL    HW2  819   0.784   2.557   0.687
  255SOL     OW  820   4.801   0.230   3.984
  255SOL    HW1  821   4.810   0.277   3.901
  255SOL    HW2  822   4.857   0.278   4.044
  256SOL     OW  823   2.909   2.121   1.545
  256SOL    HW1  824   2.843   2.054   1.528
  256SOL    HW2  825   2.984   2.095   1.492
  257SOL     OW  826   2.492   3.788   0.587
  257SOL    HW1  827   2.547   3.732   0.531
  257SOL    HW2  828   2.554   3.829   0.648
  258SOL     OW  829   4.890   4.161   1.499
  258SOL    HW1  830   4.943   4.087   1.530
  258SOL    HW2  831   4.800   4.129   1.503
  259SOL     OW  832   3.656   4.750   3.692
  259SOL    HW1  833   3.584   4.690   3.676
  259SOL    HW2  834   3.615   4.835   3.709
  260SOL     OW  835   4.440   1.347   4.847
  260SOL    HW1  836   4.514   1.407   4.840
  260SOL    HW2  837   4.431   1.310   4.760
  261SOL     OW  838   4.295   4.674   0.271
  261SOL    HW1  839   4.323   4.702   0.358
  261SOL    HW2  840   4.200   4.662   0.279
  262SOL     OW  841   1.328   1.715   4.269
  262SOL    HW1  842   1.380   1.782   4.224
  262SOL    HW2  843   1.350   1.634   4.222
  263SOL     OW  844   3.343   1.229   2.955
  263SOL    HW1  845   3.398   1.304   2.975
  263SOL    HW2  846   3.323   1.237   2.862
  264SOL     OW  847   2.367   3.686   1.979
  264SOL    HW1  848   2.391   3.603   2.020
  264SOL    HW2  849   2.310   3.662   1.907
  265SOL     OW  850   1.634   1.735   3.848
  265SOL    HW1  851   1.645   1.651   3.802
  265SOL    HW2  852   1.592   1.792   3.784
  266SOL     OW  853   3.809   3.638   3.586
  266SOL    HW1  854   3.897   3.620   3.553
  266SOL    HW2  855   3.784   3.559   3.633
  267SOL     OW  856   3.618   4.529   0.059
  267SOL    HW1  857   3.560   4.495   4.967
  267SOL    HW2  858   3.575   4.609   0.090
  268SOL     OW  859   0.251   2.536   3.929
  268SOL    HW1  860   0.340   2.532   3.892
  268SOL    HW2  861   0.209   2.456   3.897
  269SOL     OW  862   3.765   3.409   4.340
  269SOL    HW1  863   3.847   3.359   4.330
  269SOL    HW2  864   3.770   3.478   4.274
  270SOL     OW  865   2.460   4.813   3.834
  270SOL    HW1  866   2.369   4.844   3.833
  270SOL    HW2  867   2.468   4.765   3.917
  271SOL     OW  868   3.844   2.915   4.816
  271SOL    HW1  869   3.848   2.878   4.728
  271SOL    HW2  870   3.837   2.838   4.873
  272SOL     OW  871   3.099   1.822   0.890
  272SOL    HW1  872   3.097   1.913   0.860
  272SOL    HW2  873   3.007   1.795   0.891
  273SOL     OW  874   0.359   1.637   3.120
  273SOL    HW1  875   0.398   1.718   3.087
  273SOL    HW2  876   0.347   1.582   3.042
  274SOL     OW  877   0.612   3.529   4.309
  274SOL    HW1  878   0.588   3.442   4.279
  274SOL    HW2  879   0.672   3.514   4.382
  275SOL     OW  880   0.822   4.098   4.411
  275SOL    HW1  881   0.777   4.140   4.485
  275SOL    HW2  882   0.772   4.125   4.334
  276SOL     OW  883   4.054   1.107   3.293
  276SOL    HW1  884   4.147   1.125   3.308
  276SOL    HW2  885   4.053   1.039   3.225
  277SOL     OW  886   3.995   4.748   4.602
  277SOL    HW1  887   4.036   4.726   4.518
  277SOL    HW2  888   4.068   4.746   4.665
  278SOL     OW  889   3.845   4.337   0.304
  278SOL    HW1  890   3.921   4.335   0.244
  278SOL    HW2  891   3.861   4.413   0.360
  279SOL     OW  892   1.125   3.046   3.101
  279SOL    HW1  893   1.169   3.129   3.080
  279SOL    HW2  894   1.163   3.019   3.184
  280SOL     OW  895   4.345   4.417   3.719
  280SOL    HW1  896   4.302   4.502   3.711
  280SOL    HW2  897   4.390   4.421   3.804
  281SOL     OW  898   2.949   0.802   1.728
  281SOL    HW1  899   3.005   0.838   1.797
  281SOL    HW2  900   2.977   0.711   1.720
  282SOL     OW  901   3.784   2.656   4.963
  282SOL    HW1  902   3.873   2.625   0.004
  282SOL    HW2  903   3.761   2.707   0.065
  283SOL     OW  904   4.757   0.425   2.112
  283SOL    HW1  905   4.754   0.429   2.208
  283SOL    HW2  906   4.762   0.517   2.085
  284SOL     OW  907   3.598   2.806   1.006
  284SOL    HW1  908   3.662   2.870   1.037
  284SOL    HW2  909   3.571   2.759   1.085
  285SOL     OW  910   3.766   4.002   2.211
  285SOL    HW1  911   3.716   4.083   2.217
  285SOL    HW2  912   3.704   3.933   2.235
  286SOL     OW  913   3.261   1.505   3.132
  286SOL    HW1  914   3.177   1.508   3.177
  286SOL    HW2  915   3.301   1.591   3.149
  287SOL     OW  916   4.722   3.776   2.954
  287SOL    HW1  917   4.794   3.840   2.957
  287SOL    HW2  918   4.676   3.789   3.036
  288SOL     OW  919   3.384   0.084   0.466
  288SOL    HW1  920   3.473   0.066   0.495
  288SOL    HW2  921   3.340   4.975   0.473
  289SOL     OW  922   2.689   4.491   2.194
  289SOL    HW1  923   2.774   4.449   2.191
  289SOL    HW2  924   2.637   4.438   2.254
  290SOL     OW  925   4.646   2.564   4.039
  290SOL    HW1  926   4.552   2.552   4.030
  290SOL    HW2  927   4.673   2.606   3.958
  291SOL     OW  928   4.300   0.045   4.963
  291SOL    HW1  929   4.229   4.964   4.932
  291SOL    HW2  930   4.294   0.123   4.908
  292SOL     OW  931   4.914   2.527   3.354
  292SOL    HW1  932   4.926   2.435   3.332
  292SOL    HW2  933   0.026   2.559   3.375
  293SOL     OW  934   0.502   3.904   2.232
  293SOL    HW1  935   0.513   3.917   2.326
  293SOL    HW2  936   0.411   3.928   2.215
  294SOL     OW  937   3.590   4.894   1.255
  294SOL    HW1  938   3.636   4.817   1.290
  294SOL    HW2  939   3.542   4.929   1.330
  295SOL     OW  940   3.579   4.027   3.886
  295SOL    HW1  941   3.641   4.073   3.943
  295SOL    HW2  942   3.617   3.940   3.874
  296SOL     OW  943   2.553   2.656   4.467
  296SOL    HW1  944   2.599   2.739   4.454
  296SOL    HW2  945   2.604   2.611   4.535
  297SOL     OW  946   0.965   2.349   4.824
  297SOL    HW1  947   0.927   2.331   4.737
  297SOL    HW2  948   0.901   2.407   4.866
  298SOL     OW  949   1.018   2.819   1.956
  298SOL    HW1  950   0.934   2.840   1.997
  298SOL    HW2  951   0.995   2.792   1.867
  299SOL     OW  952   0.961   4.365   1.225
  299SOL    HW1  953   0.919   4.305   1.164
  299SOL    HW2  954   0.921   4.450   1.207
  300SOL     OW  955   3.297   3.941   1.200
  300SOL    HW1  956   3.339   4.027   1.203
  300SOL    HW2  957   3.348   3.887   1.260
  301SOL     OW  958   2.421   3.051   2.427
  301SOL    HW1  959   2.436   2.957   2.430
  301SOL    HW2  960   2.417   3.073   2.334
  302SOL     OW  961   3.667   0.340   3.820
  302SOL    HW1  962   3.673   0.248   3.794
  302SOL    HW2  963   3.614   0.339   3.900
  303SOL     OW  964   3.636   1.149   0.958
  303SOL    HW1  965   3.560   1.148   0.901
  303SOL    HW2  966   3.665   1.240   0.959
  304SOL     OW  967   4.466   1.572   2.796
  304SOL    HW1  968   4.497   1.552   2.884
  304SOL    HW2  969   4.543   1.558   2.740
  305SOL     OW  970   3.044   0.669   0.781
  305SOL    HW1  971   3.064   0.722   0.858
  305SOL    HW2  972   3.062   0.579   0.808
  306SOL     OW  973   2.614   2.839   0.600
  306SOL    HW1  974   2.609   2.743   0.606
  306SOL    HW2  975   2.707   2.857   0.585
  307SOL     OW  976   3.355   2.298   1.382
  307SOL    HW1  977   3.382   2.313   1.473
  307SOL    HW2  978   3.325   2.208   1.381
  308SOL     OW  979   4.476   1.592   2.004
  308SOL    HW1  980   4.434   1.564   2.085
  308SOL    HW2  981   4.527   1.516   1.976
  309SOL     OW  982   1.239   4.151   3.475
  309SOL    HW1  983   1.194   4.067   3.471
  309SOL    HW2  984   1.168   4.216   3.468
  310SOL     OW  985   0.297   4.002   3.034
  310SOL    HW1  986   0.228   4.019   3.098
  310SOL    HW2  987   0.254   4.006   2.949
  311SOL     OW  988   0.604   4.897   1.859
  311SOL    HW1  989   0.511   4.906   1.841
  311SOL    HW2  990   0.617   4.941   1.943
  312SOL     OW  991   1.480   1.830   2.176
  312SOL    HW1  992   1.472   1.744   2.217
  312SOL    HW2  993   1.394   1.870   2.189
  313SOL     OW  994   0.491   0.896   0.970
  313SOL    HW1  995   0.447   0.864   1.049
  313SOL    HW2  996   0.432   0.964   0.937
  314SOL     OW  997   4.560   1.048   3.839
  314SOL    HW1  998   4.478   1.089   3.811
  314SOL    HW2  999   4.591   1.003   3.760
  315SOL     OW 1000   3.028   0.531   1.701
  315SOL    HW1 1001   2.933   0.519   1.703
  315SOL    HW2 1002   3.062   0.450   1.739
  316SOL     OW 1003   3.967   3.718   1.513
  316SOL    HW1 1004   4.037   3.700   1.450
  316SOL    HW2 1005   3.997   3.678   1.595
  317SOL     OW 1006   2.503   3.426   0.635
  317SOL    HW1 1007   2.521   3.438   0.542
  317SOL    HW2 1008   2.579   3.465   0.679
  318SOL     OW 1009   1.617   0.032   0.745
  318SOL    HW1 1010   1.631   0.005   0.654
  318SOL    HW2 1011   1.696   0.003   0.791
  319SOL     OW 1012   3.995   4.011   1.630
  319SOL    HW1 1013   3.923   4.068   1.605
  319SOL    HW2 1014   3.966   3.923   1.603
  320SOL     OW 1015   4.854   1.256   1.502
  320SOL    HW1 1016   4.806   1.173   1.502
  320SOL    HW2 1017   4.862   1.279   1.409
  321SOL     OW 1018   1.809   0.823   1.440
  321SOL    HW1 1019   1.777   0.865   1.520
  321SOL    HW2 1020   1.817   0.895   1.377
  322SOL     OW 1021   2.983   4.102   4.639
  322SOL    HW1 1022   2.894   4.068   4.648
  322SOL    HW2 1023   3.024   4.046   4.573
  323SOL     OW 1024   3.120   2.460   1.700
  323SOL    HW1 1025   3.189   2.507   1.653
  323SOL    HW2 1026   3.039   2.491   1.660
  324SOL     OW 1027   1.058   1.110   1.502
  324SOL    HW1 1028   0.963   1.120   1.494
  324SOL    HW2 1029   1.070   1.061   1.583
  325SOL     OW 1030   4.042   2.337   3.349
  325SOL    HW1 1031   4.015   2.246   3.347
  325SOL    HW2 1032   4.080   2.353   3.262
  326SOL     OW 1033   2.604   2.978   3.041
  326SOL    HW1 1034   2.510   2.978   3.024
  326SOL    HW2 1035   2.644   2.975   2.953
  327SOL     OW 1036   4.439   0.444   0.003
  327SOL    HW1 1037   4.436   0.360   4.933
  327SOL    HW2 1038   4.354   0.451   0.045
  328SOL     OW 1039   0.918   1.869   1.956
  328SOL    HW1 1040   0.945   1.789   2.001
  328SOL    HW2 1041   0.838   1.896   2.001
  329SOL     OW 1042   0.638   3.253   2.300
  329SOL    HW1 1043   0.632   3.308   2.378
  329SOL    HW2 1044   0.626   3.164   2.332
  330SOL     OW 1045   4.085   0.370   2.112
  330SOL    HW1 1046   4.092   0.277   2.093
  330SOL    HW2 1047   4.024   0.375   2.185
  331SOL     OW 1048   4.627   4.144   2.300
  331SOL    HW1 1049   4.713   4.165   2.337
  331SOL    HW2 1050   4.643   4.066   2.246
  332SOL     OW 1051   3.315   0.729   0.202
  332SOL    HW1 1052   3.349   0.788   0.134
  332SOL    HW2 1053   3.334   0.641   0.169
  333SOL     OW 1054   3.545   0.855   0.066
  333SOL    HW1 1055   3.633   0.838   0.100
  333SOL    HW2 1056   3.549   0.826   4.951
  334SOL     OW 1057   4.870   4.667   4.549
  334SOL    HW1 1058   4.870   4.592   4.608
  334SOL    HW2 1059   4.942   4.651   4.489
  335SOL     OW 1060   2.638   4.157   2.503
  335SOL    HW1 1061   2.559   4.180   2.454
  335SOL    HW2 1062   2.656   4.066   2.479
  336SOL     OW 1063   2.158   2.648   1.806
  336SOL    HW1 1064   2.245   2.660   1.768
  336SOL    HW2 1065   2.172   2.660   1.900
  337SOL     OW 1066   1.408   3.374   2.273
  337SOL    HW1 1067   1.480   3.404   2.329
  337SOL    HW2 1068   1.337   3.436   2.291
  338SOL     OW 1069   4.844   1.098   0.823
  338SOL    HW1 1070   4.814   1.095   0.914
  338SOL    HW2 1071   4.820   1.012   0.787
  339SOL     OW 1072   1.263   4.663   2.977
  339SOL    HW1 1073   1.205   4.633   2.908
  339SOL    HW2 1074   1.343   4.611   2.965
  340SOL     OW 1075   4.134   0.204   1.798
  340SOL    HW1 1076   4.228   0.207   1.817
  340SOL    HW2 1077   4.093   0.189   1.883
  341SOL     OW 1078   3.081   2.496   3.779
  341SOL    HW1 1079   3.106   2.575   3.826
  341SOL    HW2 1080   3.162   2.464   3.740
  342SOL     OW 1081   0.216   4.500   0.020
  342SOL    HW1 1082   0.141   4.502   0.080
  342SOL    HW2 1083   0.292   4.513   0.076
  343SOL     OW 1084   1.889   0.694   1.823
  343SOL    HW1 1085   1.874   0.628   1.891
  343SOL    HW2 1086   1.856   0.776   1.861
  344SOL     OW 1087   1.505   4.554   3.003
  344SOL    HW1 1088   1.527   4.624   3.064
  344SOL    HW2 1089   1.583   4.542   2.950
  345SOL     OW 1090   2.360   1.219   4.867
  345SOL    HW1 1091   2.348   1.201   4.773
  345SOL    HW2 1092   2.449   1.189   4.886
  346SOL     OW 1093   1.176   4.464   2.414
  346SOL    HW1 1094   1.093   4.498   2.448
  346SOL    HW2 1095   1.230   4.542   2.399
  347SOL     OW 1096   3.853   4.641   2.336
  347SOL    HW1 1097   3.815   4.604   2.256
  347SOL    HW2 1098   3.933   4.685   2.307
  348SOL     OW 1099   0.063   2.771   0.673
  348SOL    HW1 1100   0.086   2.713   0.601
  348SOL    HW2 1101   0.052   2.857   0.632
  349SOL     OW 1102   0.424   0.435   3.121
  349SOL    HW1 1103   0.348   0.378   3.137
  349SOL    HW2 1104   0.388   0.523   3.121
  350SOL     OW 1105   4.930   4.187   1.055
  350SOL    HW1 1106   4.967   4.268   1.022
  350SOL    HW2 1107   4.949   4.122   0.987
  351SOL     OW 1108   2.082   4.070   4.384
  351SOL    HW1 1109   2.010   4.008   4.395
  351SOL    HW2 1110   2.121   4.077   4.471
  352SOL     OW 1111   4.939   1.751   3.680
  352SOL    HW1 1112   4.875   1.695   3.723
  352SOL    HW2 1113   0.029   1.769   3.748
  353SOL     OW 1114   0.568   3.774   1.273
  353SOL    HW1 1115   0.585   3.868   1.272
  353SOL    HW2 1116   0.473   3.767   1.262
  354SOL     OW 1117   2.646   2.836   0.912
  354SOL    HW1 1118   2.642   2.917   0.860
  354SOL    HW2 1119   2.716   2.853   0.975
  355SOL     OW 1120   2.034   3.460   1.528
  355SOL    HW1 1121   2.119   3.432   1.493
  355SOL    HW2 1122   1.982   3.481   1.450
  356SOL     OW 1123   0.389   3.179   2.026
  356SOL    HW1 1124   0.478   3.150   2.045
  356SOL    HW2 1125   0.381   3.264   2.070
  357SOL     OW 1126   3.594   3.894   1.783
  357SOL    HW1 1127   3.564   3.871   1.871
  357SOL    HW2 1128   3.539   3.843   1.724
  358SOL     OW 1129   3.299   3.804   0.812
  358SOL    HW1 1130   3.363   3.857   0.764
  358SOL    HW2 1131   3.255   3.867   0.869
  359SOL     OW 1132   0.679   3.119   2.064
  359SOL    HW1 1133   0.668   3.160   2.150
  359SOL    HW2 1134   0.760   3.157   2.030
  360SOL     OW 1135   0.200   4.670   2.898
  360SOL    HW1 1136   0.154   4.752   2.913
  360SOL    HW2 1137   0.248   4.654   2.980
  361SOL     OW 1138   2.559   3.441   3.917
  361SOL    HW1 1139   2.619   3.419   3.988
  361SOL    HW2 1140   2.567   3.368   3.855
  362SOL     OW 1141   2.440   0.907   0.766
  362SOL    HW1 1142   2.488   0.849   0.707
  362SOL    HW2 1143   2.367   0.939   0.714
  363SOL     OW 1144   3.796   0.600   4.540
  363SOL    HW1 1145   3.820   0.546   4.465
  363SOL    HW2 1146   3.841   0.683   4.525
  364SOL     OW 1147   0.047   1.100   3.511
  364SOL    HW1 1148   0.011   1.176   3.556
  364SOL    HW2 1149   0.129   1.132   3.472
  365SOL     OW 1150   2.551   2.336   1.541
  365SOL    HW1 1151   2.462   2.369   1.555
  365SOL    HW2 1152   2.583   2.385   1.465
  366SOL     OW 1153   3.126   1.039   1.863
  366SOL    HW1 1154   3.101   1.070   1.950
  366SOL    HW2 1155   3.077   1.096   1.803
  367SOL     OW 1156   3.182   3.060   1.081
  367SOL    HW1 1157   3.238   3.006   1.136
  367SOL    HW2 1158   3.236   3.080   1.004
  368SOL     OW 1159   4.431   1.958   2.817
  368SOL    HW1 1160   4.336   1.965   2.818
  368SOL    HW2 1161   4.458   1.974   2.908
  369SOL     OW 1162   2.161   4.262   1.638
  369SOL    HW1 1163   2.068   4.239   1.639
  369SOL    HW2 1164   2.172   4.313   1.557
  370SOL     OW 1165   2.587   0.030   0.693
  370SOL    HW1 1166   2.551   0.116   0.673
  370SOL    HW2 1167   2.565   4.953   0.616
  371SOL     OW 1168   2.975   1.909   2.130
  371SOL    HW1 1169   2.945   1.820   2.150
  371SOL    HW2 1170   2.961   1.918   2.035
  372SOL     OW 1171   1.891   3.066   0.857
  372SOL    HW1 1172   1.865   3.154   0.830
  372SOL    HW2 1173   1.944   3.079   0.935
  373SOL     OW 1174   4.524   2.285   4.234
  373SOL    HW1 1175   4.463   2.286   4.308
  373SOL    HW2 1176   4.610   2.273   4.274
  374SOL     OW 1177   2.994   4.066   1.787
  374SOL    HW1 1178   3.065   4.012   1.823
  374SOL    HW2 1179   2.930   4.003   1.754
  375SOL     OW 1180   1.511   0.025   1.000
  375SOL    HW1 1181   1.530   4.975   0.910
  375SOL    HW2 1182   1.597   0.042   1.039
  376SOL     OW 1183   4.745   0.079   1.617
  376SOL    HW1 1184   4.743   0.165   1.573
  376SOL    HW2 1185   4.824   0.037   1.583
  377SOL     OW 1186   3.478   0.044   4.939
  377SOL    HW1 1187   3.452   4.948   0.020
  377SOL    HW2 1188   3.399   0.097   4.929
  378SOL     OW 1189   3.068   0.751   0.503
  378SOL    HW1 1190   3.051   0.673   0.452
  378SOL    HW2 1191   3.046   0.726   0.593
  379SOL     OW 1192   1.694   2.949   0.731
  379SOL    HW1 1193   1.722   3.019   0.671
  379SOL    HW2 1194   1.749   2.960   0.808
  380SOL     OW 1195   2.269   2.340   0.310
  380SOL    HW1 1196   2.345   2.310   0.261
  380SOL    HW2 1197   2.289   2.318   0.401
  381SOL     OW 1198   1.459   4.605   0.319
  381SOL    HW1 1199   1.512   4.591   0.397
  381SOL    HW2 1200   1.459   4.521   0.274
  382SOL     OW 1201   1.834   2.908   3.597
  382SOL    HW1 1202   1.803   2.836   3.652
  382SOL    HW2 1203   1.912   2.872   3.553
  383SOL     OW 1204   4.032   2.941   3.256
  383SOL    HW1 1205   4.100   2.904   3.311
  383SOL    HW2 1206   3.967   2.870   3.246
  384SOL     OW 1207   2.379   3.073   1.366
  384SOL    HW1 1208   2.355   3.154   1.411
  384SOL    HW2 1209   2.322   3.007   1.405
  385SOL     OW 1210   1.215   4.832   1.811
  385SOL    HW1 1211   1.279   4.830   1.883
  385SOL    HW2 1212   1.136   4.793   1.849
  386SOL     OW 1213   4.566   0.917   4.849
  386SOL    HW1 1214   4.555   0.963   4.931
  386SOL    HW2 1215   4.494   0.947   4.794
  387SOL     OW 1216   4.617   1.448   4.657
  387SOL    HW1 1217   4.576   1.442   4.570
  387SOL    HW2 1218   4.671   1.527   4.653
  388SOL     OW 1219   0.686   2.608   2.413
  388SOL    HW1 1220   0.714   2.695   2.384
  388SOL    HW2 1221   0.622   2.624   2.482
  389SOL     OW 1222   4.464   4.198   2.024
  389SOL    HW1 1223   4.507   4.211   1.940
  389SOL    HW2 1224   4.528   4.229   2.089
  390SOL     OW 1225   3.951   0.965   0.644
  390SOL    HW1 1226   3.964   0.910   0.721
  390SOL    HW2 1227   3.858   0.954   0.621
  391SOL     OW 1228   1.011   4.429   3.070
  391SOL    HW1 1229   0.937   4.375   3.044
  391SOL    HW2 1230   1.066   4.434   2.992
  392SOL     OW 1231   0.340   2.202   3.972
  392SOL    HW1 1232   0.298   2.215   3.887
  392SOL    HW2 1233   0.384   2.284   3.990
  393SOL     OW 1234   0.385   0.636   0.196
  393SOL    HW1 1235   0.335   0.687   0.261
  393SOL    HW2 1236   0.323   0.571   0.163
  394SOL     OW 1237   2.351   3.099   0.958
  394SOL    HW1 1238   2.265   3.111   0.999
  394SOL    HW2 1239   2.365   3.178   0.907
  395SOL     OW 1240   2.791   4.040   2.726
  395SOL    HW1 1241   2.794   4.124   2.772
  395SOL    HW2 1242   2.759   4.061   2.638
  396SOL     OW 1243   4.397   1.879   4.446
  396SOL    HW1 1244   4.373   1.812   4.510
  396SOL    HW2 1245   4.398   1.961   4.496
  397SOL     OW 1246   2.344   3.115   3.695
  397SOL    HW1 1247   2.273   3.054   3.716
  397SOL    HW2 1248   2.308   3.201   3.717
  398SOL     OW 1249   0.057   2.987   0.527
  398SOL    HW1 1250   0.032   3.074   0.495
  398SOL    HW2 1251   0.072   2.935   0.449
  399SOL     OW 1252   0.141   1.794   3.871
  399SOL    HW1 1253   0.124   1.860   3.938
  399SOL    HW2 1254   0.236   1.782   3.872
  400SOL     OW 1255   3.116   3.296   3.468
  400SOL    HW1 1256   3.065   3.222   3.499
  400SOL    HW2 1257   3.124   3.282   3.374
  401SOL     OW 1258   2.013   4.105   0.579
  401SOL    HW1 1259   1.926   4.136   0.602
  401SOL    HW2 1260   2.067   4.126   0.656
  402SOL     OW 1261   0.617   4.428   4.394
  402SOL    HW1 1262   0.683   4.407   4.459
  402SOL    HW2 1263   0.626   4.361   4.326
  403SOL     OW 1264   2.379   4.051   3.057
  403SOL    HW1 1265   2.444   4.021   2.994
  403SOL    HW2 1266   2.394   4.145   3.065
  404SOL     OW 1267   0.929   2.172   1.676
  404SOL    HW1 1268   1.013   2.185   1.720
  404SOL    HW2 1269   0.949   2.172   1.583
  405SOL     OW 1270   1.560   2.136   3.690
  405SOL    HW1 1271   1.531   2.046   3.673
  405SOL    HW2 1272   1.624   2.154   3.621
  406SOL     OW 1273   2.507   4.678   4.080
  406SOL    HW1 1274   2.493   4.749   4.143
  406SOL    HW2 1275   2.444   4.610   4.105
  407SOL     OW 1276   2.409   4.102   3.842
  407SOL    HW1 1277   2.345   4.108   3.770
  407SOL    HW2 1278   2.432   4.193   3.860
  408SOL     OW 1279   4.400   1.332   1.808
  408SOL    HW1 1280   4.400   1.379   1.725
  408SOL    HW2 1281   4.492   1.314   1.825
  409SOL     OW 1282   2.493   0.565   3.035
  409SOL    HW1 1283   2.566   0.533   3.088
  409SOL    HW2 1284   2.418   0.568   3.095
  410SOL     OW 1285   4.677   4.582   2.808
  410SOL    HW1 1286   4.734   4.515   2.847
  410SOL    HW2 1287   4.629   4.535   2.740
  411SOL     OW 1288   2.402   2.992   4.582
  411SOL    HW1 1289   2.388   3.033   4.667
  411SOL    HW2 1290   2.449   3.057   4.531
  412SOL     OW 1291   0.807   0.088   1.458
  412SOL    HW1 1292   0.747   0.150   1.417
  412SOL    HW2 1293   0.795   0.101   1.552
  413SOL     OW 1294   4.032   4.660   3.550
  413SOL    HW1 1295   4.107   4.631   3.601
  413SOL    HW2 1296   3.979   4.710   3.612
  414SOL     OW 1297   1.990   2.437   0.148
  414SOL    HW1 1298   1.999   2.344   0.170
  414SOL    HW2 1299   2.014   2.441   0.055
  415SOL     OW 1300   2.435   4.656   4.522
  415SOL    HW1 1301   2.431   4.650   4.618
  415SOL    HW2 1302   2.505   4.596   4.497
  416SOL     OW 1303   3.240   3.511   2.164
  416SOL    HW1 1304   3.235   3.459   2.084
  416SOL    HW2 1305   3.327   3.492   2.200
  417SOL     OW 1306   4.816   3.414   4.130
  417SOL    HW1 1307   4.783   3.376   4.211
  417SOL    HW2 1308   4.745   3.469   4.098
  418SOL     OW 1309   0.437   1.084   3.785
  418SOL    HW1 1310   0.520   1.129   3.801
  418SOL    HW2 1311   0.462   0.993   3.767
  419SOL     OW 1312   1.078   2.982   0.349
  419SOL    HW1 1313   1.079   3.069   0.389
  419SOL    HW2 1314   1.133   2.990   0.271
  420SOL     OW 1315   1.167   3.927   0.958
  420SOL    HW1 1316   1.089   3.891   0.914
  420SOL    HW2 1317   1.183   4.010   0.912
  421SOL     OW 1318   0.538   4.395   2.489
  421SOL    HW1 1319   0.448   4.394   2.522
  421SOL    HW2 1320   0.531   4.434   2.402
  422SOL     OW 1321   3.338   1.734   2.748
  422SOL    HW1 1322   3.377   1.732   2.661
  422SOL    HW2 1323   3.285   1.814   2.749
  423SOL     OW 1324   4.261   3.205   2.561
  423SOL    HW1 1325   4.297   3.197   2.473
  423SOL    HW2 1326   4.176   3.163   2.556
  424SOL     OW 1327   1.990   0.944   4.919
  424SOL    HW1 1328   2.022   0.967   0.030
  424SOL    HW2 1329   2.065   0.903   4.876
  425SOL     OW 1330   4.320   0.062   4.128
  425SOL    HW1 1331   4.278   0.075   4.042
  425SOL    HW2 1332   4.378   0.137   4.138
  426SOL     OW 1333   0.945   0.862   2.891
  426SOL    HW1 1334   0.910   0.945   2.923
  426SOL    HW2 1335   0.889   0.838   2.818
  427SOL     OW 1336   2.259   4.434   4.765
  427SOL    HW1 1337   2.197   4.380   4.717
  427SOL    HW2 1338   2.204   4.493   4.817
  428SOL     OW 1339   1.526   4.595   4.333
  428SOL    HW1 1340   1.600   4.554   4.379
  428SOL    HW2 1341   1.454   4.592   4.396
  429SOL     OW 1342   2.290   4.302   3.211
  429SOL    HW1 1343   2.382   4.296   3.236
  429SOL    HW2 1344   2.272   4.396   3.208
  430SOL     OW 1345   0.687   4.673   4.319
  430SOL    HW1 1346   0.685   4.581   4.345
  430SOL    HW2 1347   0.687   4.721   4.401
  431SOL     OW 1348   0.005   2.434   1.562
  431SOL    HW1 1349   0.099   2.421   1.575
  431SOL    HW2 1350   4.975   2.511   1.506
  432SOL     OW 1351   4.124   1.956   4.798
  432SOL    HW1 1352   4.034   1.942   4.767
  432SOL    HW2 1353   4.144   1.878   4.850
  433SOL     OW 1354   4.135   4.732   3.236
  433SOL    HW1 1355   4.211   4.684   3.268
  433SOL    HW2 1356   4.120   4.698   3.148
  434SOL     OW 1357   1.642   3.991   4.141
  434SOL    HW1 1358   1.563   3.936   4.138
  434SOL    HW2 1359   1.696   3.950   4.209
  435SOL     OW 1360   1.715   3.148   2.116
  435SOL    HW1 1361   1.683   3.058   2.125
  435SOL    HW2 1362   1.704   3.168   2.023
  436SOL     OW 1363   0.658   1.685   0.089
  436SOL    HW1 1364   0.722   1.725   0.148
  436SOL    HW2 1365   0.688   1.594   0.079
  437SOL     OW 1366   2.689   1.585   0.554
  437SOL    HW1 1367   2.611   1.622   0.594
  437SOL    HW2 1368   2.698   1.499   0.594
  438SOL     OW 1369   4.793   4.356   2.947
  438SOL    HW1 1370   4.805   4.357   3.042
  438SOL    HW2 1371   4.755   4.270   2.929
  439SOL     OW 1372   4.456   1.884   4.860
  439SOL    HW1 1373   4.406   1.946   4.806
  439SOL    HW2 1374   4.439   1.799   4.819
  440SOL     OW 1375   1.306   0.603   4.348
  440SOL    HW1 1376   1.240   0.627   4.413
  440SOL    HW2 1377   1.268   0.528   4.302
  441SOL     OW 1378   4.699   1.288   3.776
  441SOL    HW1 1379   4.782   1.241   3.786
  441SOL    HW2 1380   4.636   1.235   3.824
  442SOL     OW 1381   0.593   0.852   3.682
  442SOL    HW1 1382   0.684   0.862   3.711
  442SOL    HW2 1383   0.580   0.757   3.678
  443SOL     OW 1384   3.719   1.237   4.474
  443SOL    HW1 1385   3.725   1.143   4.487
  443SOL    HW2 1386   3.808   1.264   4.450
  444SOL     OW 1387   3.477   4.200   0.489
  444SOL    HW1 1388   3.569   4.190   0.510
  444SOL    HW2 1389   3.474   4.275   0.430
  445SOL     OW 1390   2.691   4.471   1.119
  445SOL    HW1 1391   2.638   4.447   1.044
  445SOL    HW2 1392   2.647   4.546   1.157
  446SOL     OW 1393   2.010   3.880   0.148
  446SOL    HW1 1394   2.051   3.910   0.067
  446SOL    HW2 1395   2.009   3.957   0.204
  447SOL     OW 1396   2.504   1.897   0.856
  447SOL    HW1 1397   2.576   1.960   0.860
  447SOL    HW2 1398   2.434   1.936   0.907
  448SOL     OW 1399   1.499   1.241   4.267
  448SOL    HW1 1400   1.502   1.191   4.186
  448SOL    HW2 1401   1.450   1.320   4.245
  449SOL     OW 1402   2.499   2.826   0.146
  449SOL    HW1 1403   2.443   2.843   0.070
  449SOL    HW2 1404   2.450   2.862   0.220
  450SOL     OW 1405   1.254   4.900   4.260
  450SOL    HW1 1406   1.207   0.007   4.249
  450SOL    HW2 1407   1.346   4.922   4.245
  451SOL     OW 1408   4.953   1.978   3.115
  451SOL    HW1 1409   0.038   2.002   3.184
  451SOL    HW2 1410   4.876   2.032   3.131
  452SOL     OW 1411   4.934   1.564   4.045
  452SOL    HW1 1412   4.967   1.627   4.109
  452SOL    HW2 1413   0.032   1.546   3.988
  453SOL     OW 1414   0.839   1.917   4.858
  453SOL    HW1 1415   0.779   1.988   4.880
  453SOL    HW2 1416   0.913   1.960   4.816
  454SOL     OW 1417   2.028   4.752   0.853
  454SOL    HW1 1418   2.116   4.754   0.892
  454SOL    HW2 1419   2.044   4.733   0.760
  455SOL     OW 1420   4.370   0.070   0.833
  455SOL    HW1 1421   4.396   0.028   0.915
  455SOL    HW2 1422   4.392   0.005   0.765
  456SOL     OW 1423   0.364   1.232   4.013
  456SOL    HW1 1424   0.283   1.196   3.978
  456SOL    HW2 1425   0.407   1.273   3.938
  457SOL     OW 1426   2.032   0.758   3.033
  457SOL    HW1 1427   2.057   0.832   2.977
  457SOL    HW2 1428   1.937   0.765   3.039
  458SOL     OW 1429   0.408   1.527   1.877
  458SOL    HW1 1430   0.340   1.538   1.811
  458SOL    HW2 1431   0.426   1.433   1.878
  459SOL     OW 1432   2.893   1.098   0.170
  459SOL    HW1 1433   2.874   1.047   0.091
  459SOL    HW2 1434   2.882   1.036   0.242
  460SOL     OW 1435   2.265   3.322   1.151
  460SOL    HW1 1436   2.352   3.346   1.118
  460SOL    HW2 1437   2.250   3.381   1.224
  461SOL     OW 1438   4.909   1.629   4.908
  461SOL    HW1 1439   4.851   1.553   4.908
  461SOL    HW2 1440   4.952   1.627   0.017
  462SOL     OW 1441   4.099   2.230   1.624
  462SOL    HW1 1442   4.194   2.228   1.631
  462SOL    HW2 1443   4.081   2.185   1.541
  463SOL     OW 1444   3.426   1.776   2.505
  463SOL    HW1 1445   3.458   1.840   2.441
  463SOL    HW2 1446   3.382   1.710   2.452
  464SOL     OW 1447   1.966   2.166   4.891
  464SOL    HW1 1448   1.979   2.073   4.873
  464SOL    HW2 1449   2.025   2.184   4.964
  465SOL     OW 1450   0.745   2.997   4.526
  465SOL    HW1 1451   0.692   2.997   4.606
  465SOL    HW2 1452   0.714   2.921   4.476
  466SOL     OW 1453   3.665   2.791   0.182
  466SOL    HW1 1454   3.577   2.791   0.144
  466SOL    HW2 1455   3.651   2.800   0.276
  467SOL     OW 1456   2.933   0.433   2.285
  467SOL    HW1 1457   2.858   0.405   2.232
  467SOL    HW2 1458   2.901   0.430   2.375
  468SOL     OW 1459   0.704   1.044   1.130
  468SOL    HW1 1460   0.624   1.082   1.096
  468SOL    HW2 1461   0.770   1.061   1.062
  469SOL     OW 1462   4.215   1.675   4.596
  469SOL    HW1 1463   4.148   1.742   4.589
  469SOL    HW2 1464   4.172   1.595   4.565
  470SOL     OW 1465   4.066   2.850   0.579
  470SOL    HW1 1466   4.071   2.754   0.576
  470SOL    HW2 1467   4.157   2.879   0.565
  471SOL     OW 1468   3.771   2.287   0.287
  471SOL    HW1 1469   3.818   2.294   0.205
  471SOL    HW2 1470   3.713   2.211   0.275
  472SOL     OW 1471   1.594   1.610   0.708
  472SOL    HW1 1472   1.551   1.626   0.623
  472SOL    HW2 1473   1.644   1.530   0.695
  473SOL     OW 1474   4.306   4.481   2.739
  473SOL    HW1 1475   4.235   4.537   2.707
  473SOL    HW2 1476   4.334   4.523   2.820
  474SOL     OW 1477   0.687   1.538   0.466
  474SOL    HW1 1478   0.614   1.573   0.415
  474SOL    HW2 1479   0.704   1.452   0.428
  475SOL     OW 1480   1.381   2.371   4.568
  475SOL    HW1 1481   1.452   2.342   4.625
  475SOL    HW2 1482   1.419   2.371   4.480
  476SOL     OW 1483   0.584   0.500   1.564
  476SOL    HW1 1484   0.577   0.465   1.475
  476SOL    HW2 1485   0.569   0.424   1.620
  477SOL     OW 1486   0.787   1.979   1.038
  477SOL    HW1 1487   0.824   2.065   1.054
  477SOL    HW2 1488   0.696   1.985   1.066
  478SOL     OW 1489   0.038   0.209   4.897
  478SOL    HW1 1490   4.964   0.134   4.928
  478SOL    HW2 1491   0.113   0.171   4.852
  479SOL     OW 1492   0.570   4.898   0.051
  479SOL    HW1 1493   0.538   4.973   0.101
  479SOL    HW2 1494   0.536   4.912   4.938
  480SOL     OW 1495   4.548   3.200   2.722
  480SOL    HW1 1496   4.574   3.140   2.652
  480SOL    HW2 1497   4.459   3.226   2.700
  481SOL     OW 1498   3.829   3.286   3.172
  481SOL    HW1 1499   3.786   3.371   3.162
  481SOL    HW2 1500   3.773   3.225   3.124
  482SOL     OW 1501   4.476   4.824   0.105
  482SOL    HW1 1502   4.389   4.794   0.129
  482SOL    HW2 1503   4.466   4.917   0.086
  483SOL     OW 1504   2.922   0.835   3.605
  483SOL    HW1 1505   2.976   0.914   3.605
  483SOL    HW2 1506   2.879   0.835   3.690
  484SOL     OW 1507   4.950   2.242   0.542
  484SOL    HW1 1508   4.969   2.274   0.454
  484SOL    HW2 1509   4.869   2.286   0.567
  485SOL     OW 1510   2.640   2.252   0.633
  485SOL    HW1 1511   2.654   2.187   0.702
  485SOL    HW2 1512   2.580   2.315   0.671
  486SOL     OW 1513   2.646   4.463   2.794
  486SOL    HW1 1514   2.692   4.544   2.774
  486SOL    HW2 1515   2.689   4.430   2.873
  487SOL     OW 1516   0.060   3.166   0.086
  487SOL    HW1 1517   4.952   3.195   0.120
  487SOL    HW2 1518   0.069   3.210   0.002
  488SOL     OW 1519   1.510   3.690   4.665
  488SOL    HW1 1520   1.550   3.748   4.730
  488SOL    HW2 1521   1.517   3.602   4.703
  489SOL     OW 1522   2.284   1.214   3.563
  489SOL    HW1 1523   2.209   1.162   3.591
  489SOL    HW2 1524   2.356   1.151   3.557
  490SOL     OW 1525   3.682   1.137   2.306
  490SOL    HW1 1526   3.764   1.182   2.287
  490SOL    HW2 1527   3.706   1.044   2.310
  491SOL     OW 1528   3.005   4.468   2.422
  491SOL    HW1 1529   2.924   4.447   2.469
  491SOL    HW2 1530   3.003   4.411   2.345
  492SOL     OW 1531   1.722   3.724   0.717
  492SOL    HW1 1532   1.803   3.763   0.684
  492SOL    HW2 1533   1.681   3.684   0.640
  493SOL     OW 1534   0.934   3.882   1.358
  493SOL    HW1 1535   0.863   3.867   1.296
  493SOL    HW2 1536   0.935   3.977   1.370
  494SOL     OW 1537   0.816   0.375   4.882
  494SOL    HW1 1538   0.780   0.389   4.795
  494SOL    HW2 1539   0.747   0.404   4.942
  495SOL     OW 1540   0.052   1.120   2.991
  495SOL    HW1 1541   0.074   1.090   2.903
  495SOL    HW2 1542   0.128   1.171   3.019
  496SOL     OW 1543   3.081   2.175   4.160
  496SOL    HW1 1544   3.113   2.086   4.168
  496SOL    HW2 1545   3.063   2.186   4.066
  497SOL     OW 1546   0.628   4.071   3.983
  497SOL    HW1 1547   0.607   3.978   3.977
  497SOL    HW2 1548   0.670   4.092   3.900
  498SOL     OW 1549   3.641   0.653   3.101
  498SOL    HW1 1550   3.686   0.730   3.137
  498SOL    HW2 1551   3.566   0.689   3.054
  499SOL     OW 1552   4.950   1.482   3.123
  499SOL    HW1 1553   4.976   1.571   3.146
  499SOL    HW2 1554   4.877   1.462   3.182
  500SOL     OW 1555   3.518   0.250   2.773
  500SOL    HW1 1556   3.543   0.174   2.825
  500SOL    HW2 1557   3.470   0.214   2.699
  501SOL     OW 1558   0.908   0.001   3.190
  501SOL    HW1 1559   0.894   0.092   3.164
  501SOL    HW2 1560   0.836   4.929   3.150
  502SOL     OW 1561   2.218   2.012   4.649
  502SOL    HW1 1562   2.149   1.945   4.648
  502SOL    HW2 1563   2.184   2.083   4.595
  503SOL     OW 1564   0.098   1.719   3.230
  503SOL    HW1 1565   0.183   1.683   3.206
  503SOL    HW2 1566   0.116   1.808   3.259
  504SOL     OW 1567   2.053   2.029   2.863
  504SOL    HW1 1568   2.080   1.980   2.784
  504SOL    HW2 1569   2.098   1.984   2.935
  505SOL     OW 1570   0.735   3.083   1.293
  505SOL    HW1 1571   0.803   3.139   1.257
  505SOL    HW2 1572   0.750   2.997   1.252
  506SOL     OW 1573   0.176   4.098   2.789
  506SOL    HW1 1574   0.180   4.193   2.795
  506SOL    HW2 1575   0.200   4.079   2.698
  507SOL     OW 1576   0.266   3.721   2.521
  507SOL    HW1 1577   0.212   3.797   2.501
  507SOL    HW2 1578   0.251   3.705   2.614
  508SOL     OW 1579   0.421   2.991   1.375
  508SOL    HW1 1580   0.487   2.974   1.308
  508SOL    HW2 1581   0.466   2.979   1.458
  509SOL     OW 1582   2.893   3.844   1.583
  509SOL    HW1 1583   2.953   3.897   1.530
  509SOL    HW2 1584   2.806   3.881   1.564
  510SOL     OW 1585   2.130   4.326   0.793
  510SOL    HW1 1586   2.216   4.358   0.762
  510SOL    HW2 1587   2.144   4.305   0.885
  511SOL     OW 1588   4.228   1.364   2.027
  511SOL    HW1 1589   4.285   1.358   1.951
  511SOL    HW2 1590   4.145   1.325   1.998
  512SOL     OW 1591   2.814   4.681   2.748
  512SOL    HW1 1592   2.891   4.700   2.693
  512SOL    HW2 1593   2.765   4.763   2.747
  513SOL     OW 1594   1.657   0.956   1.620
  513SOL    HW1 1595   1.659   1.021   1.690
  513SOL    HW2 1596   1.564   0.944   1.601
  514SOL     OW 1597   2.481   1.324   2.968
  514SOL    HW1 1598   2.480   1.245   2.915
  514SOL    HW2 1599   2.476   1.292   3.059
  515SOL     OW 1600   1.898   1.597   0.324
  515SOL    HW1 1601   1.810   1.569   0.298
  515SOL    HW2 1602   1.952   1.520   0.313
  516SOL     OW 1603   2.761   2.052   0.858
  516SOL    HW1 1604   2.840   2.091   0.821
  516SOL    HW2 1605   2.791   1.970   0.897
  517SOL     OW 1606   3.064   0.575   3.727
  517SOL    HW1 1607   3.049   0.490   3.687
  517SOL    HW2 1608   2.984   0.625   3.709
  518SOL     OW 1609   0.451   2.375   3.048
  518SOL    HW1 1610   0.447   2.309   2.979
  518SOL    HW2 1611   0.438   2.459   3.003
  519SOL     OW 1612   1.637   4.961   2.918
  519SOL    HW1 1613   1.548   0.003   2.948
  519SOL    HW2 1614   1.626   4.918   2.833
  520SOL     OW 1615   2.241   1.668   2.486
  520SOL    HW1 1616   2.247   1.733   2.416
  520SOL    HW2 1617   2.152   1.634   2.480
  521SOL     OW 1618   0.054   1.562   0.844
  521SOL    HW1 1619   0.138   1.524   0.871
  521SOL    HW2 1620   0.045   1.536   0.752
  522SOL     OW 1621   1.500   1.872   3.645
  522SOL    HW1 1622   1.406   1.858   3.652
  522SOL    HW2 1623   1.523   1.837   3.559
  523SOL     OW 1624   1.928   3.969   4.789
  523SOL    HW1 1625   1.882   4.026   4.728
  523SOL    HW2 1626   2.009   4.016   4.809
  524SOL     OW 1627   3.421   2.030   2.847
  524SOL    HW1 1628   3.404   2.062   2.759
  524SOL    HW2 1629   3.497   1.972   2.838
  525SOL     OW 1630   1.608   2.920   1.003
  525SOL    HW1 1631   1.543   2.896   0.938
  525SOL    HW2 1632   1.652   2.837   1.025
  526SOL     OW 1633   4.665   2.027   1.359
  526SOL    HW1 1634   4.677   1.933   1.365
  526SOL    HW2 1635   4.673   2.047   1.266
  527SOL     OW 1636   1.577   2.974   1.773
  527SOL    HW1 1637   1.615   2.890   1.746
  527SOL    HW2 1638   1.519   2.950   1.846
  528SOL     OW 1639   3.344   4.476   1.241
  528SOL    HW1 1640   3.394   4.493   1.320
  528SOL    HW2 1641   3.403   4.497   1.169
  529SOL     OW 1642   4.066   1.369   1.367
  529SOL    HW1 1643   3.988   1.318   1.345
  529SOL    HW2 1644   4.081   1.352   1.460
  530SOL     OW 1645   0.555   3.035   4.728
  530SOL    HW1 1646   0.534   3.059   4.638
  530SOL    HW2 1647   0.497   3.088   4.781
  531SOL     OW 1648   3.770   2.704   3.566
  531SOL    HW1 1649   3.806   2.793   3.560
  531SOL    HW2 1650   3.680   2.717   3.596
  532SOL     OW 1651   2.500   3.595   4.833
  532SOL    HW1 1652   2.419   3.551   4.860
  532SOL    HW2 1653   2.521   3.554   4.749
  533SOL     OW 1654   0.312   0.082   0.243
  533SOL    HW1 1655   0.406   0.101   0.239
  533SOL    HW2 1656   0.270   0.166   0.227
  534SOL     OW 1657   2.204   4.965   3.728
  534SOL    HW1 1658   2.165   0.073   3.703
  534SOL    HW2 1659   2.153   4.937   3.804
  535SOL     OW 1660   1.285   4.815   2.663
  535SOL    HW1 1661   1.253   4.899   2.630
  535SOL    HW2 1662   1.206   4.765   2.683
  536SOL     OW 1663   4.095   1.544   1.139
  536SOL    HW1 1664   4.068   1.495   1.216
  536SOL    HW2 1665   4.117   1.631   1.172
  537SOL     OW 1666   1.622   0.455   2.233
  537SOL    HW1 1667   1.583   0.491   2.313
  537SOL    HW2 1668   1.698   0.406   2.263
  538SOL     OW 1669   2.337   0.824   1.172
  538SOL    HW1 1670   2.260   0.854   1.125
  538SOL    HW2 1671   2.302   0.773   1.245
  539SOL     OW 1672   3.896   1.249   0.312
  539SOL    HW1 1673   3.897   1.213   0.223
  539SOL    HW2 1674   3.989   1.257   0.336
  540SOL     OW 1675   1.253   4.509   1.443
  540SOL    HW1 1676   1.323   4.566   1.474
  540SOL    HW2 1677   1.291   4.462   1.369
  541SOL     OW 1678   2.512   0.347   1.546
  541SOL    HW1 1679   2.564   0.327   1.469
  541SOL    HW2 1680   2.575   0.349   1.618
  542SOL     OW 1681   2.758   4.501   3.806
  542SOL    HW1 1682   2.843   4.513   3.849
  542SOL    HW2 1683   2.745   4.583   3.757
  543SOL     OW 1684   3.058   0.605   1.201
  543SOL    HW1 1685   3.063   0.691   1.160
  543SOL    HW2 1686   3.082   0.621   1.293
  544SOL     OW 1687   1.492   0.905   2.279
  544SOL    HW1 1688   1.501   0.826   2.225
  544SOL    HW2 1689   1.563   0.963   2.251
  545SOL     OW 1690   0.299   4.711   4.176
  545SOL    HW1 1691   0.308   4.618   4.199
  545SOL    HW2 1692   0.219   4.739   4.220
  546SOL     OW 1693   1.455   2.507   0.885
  546SOL    HW1 1694   1.406   2.464   0.815
  546SOL    HW2 1695   1.531   2.545   0.841
  547SOL     OW 1696   3.599   1.875   2.270
  547SOL    HW1 1697   3.589   1.809   2.201
  547SOL    HW2 1698   3.692   1.899   2.267
  548SOL     OW 1699   3.629   0.806   4.377
  548SOL    HW1 1700   3.622   0.719   4.336
  548SOL    HW2 1701   3.538   0.834   4.388
  549SOL     OW 1702   4.911   3.391   1.509
  549SOL    HW1 1703   4.859   3.311   1.506
  549SOL    HW2 1704   0.008   3.371   1.568
  550SOL     OW 1705   0.631   1.247   1.633
  550SOL    HW1 1706   0.692   1.242   1.706
  550SOL    HW2 1707   0.568   1.314   1.659
  551SOL     OW 1708   1.866   0.502   1.985
  551SOL    HW1 1709   1.858   0.555   2.064
  551SOL    HW2 1710   1.959   0.506   1.963
  552SOL     OW 1711   4.344   1.638   0.618
  552SOL    HW1 1712   4.285   1.565   0.596
  552SOL    HW2 1713   4.429   1.611   0.585
  553SOL     OW 1714   3.576   1.216   1.236
  553SOL    HW1 1715   3.570   1.185   1.145
  553SOL    HW2 1716   3.491   1.193   1.275
  554SOL     OW 1717   2.292   4.672   1.472
  554SOL    HW1 1718   2.344   4.750   1.494
  554SOL    HW2 1719   2.271   4.633   1.556
  555SOL     OW 1720   1.224   1.654   2.544
  555SOL    HW1 1721   1.289   1.665   2.613
  555SOL    HW2 1722   1.166   1.585   2.577
  556SOL     OW 1723   1.788   2.111   1.134
  556SOL    HW1 1724   1.740   2.178   1.086
  556SOL    HW2 1725   1.751   2.028   1.106
  557SOL     OW 1726   1.464   1.295   2.689
  557SOL    HW1 1727   1.386   1.277   2.742
  557SOL    HW2 1728   1.481   1.213   2.643
  558SOL     OW 1729   2.577   0.768   1.043
  558SOL    HW1 1730   2.490   0.765   1.084
  558SOL    HW2 1731   2.620   0.688   1.073
  559SOL     OW 1732   1.577   1.113   1.825
  559SOL    HW1 1733   1.505   1.151   1.775
  559SOL    HW2 1734   1.577   1.162   1.908
  560SOL     OW 1735   3.442   3.586   1.850
  560SOL    HW1 1736   3.376   3.524   1.880
  560SOL    HW2 1737   3.519   3.533   1.833
  561SOL     OW 1738   4.114   4.454   2.336
  561SOL    HW1 1739   4.056   4.511   2.286
  561SOL    HW2 1740   4.156   4.512   2.399
  562SOL     OW 1741   2.942   0.325   2.796
  562SOL    HW1 1742   2.994   0.404   2.808
  562SOL    HW2 1743   2.958   0.273   2.874
  563SOL     OW 1744   2.217   1.519   3.099
  563SOL    HW1 1745   2.241   1.456   3.031
  563SOL    HW2 1746   2.210   1.466   3.179
  564SOL     OW 1747   4.111   0.900   3.116
  564SOL    HW1 1748   4.107   0.842   3.039
  564SOL    HW2 1749   4.120   0.840   3.190
  565SOL     OW 1750   2.725   4.410   1.692
  565SOL    HW1 1751   2.729   4.506   1.696
  565SOL    HW2 1752   2.635   4.391   1.668
  566SOL     OW 1753   1.527   4.556   2.562
  566SOL    HW1 1754   1.470   4.485   2.592
  566SOL    HW2 1755   1.613   4.534   2.599
  567SOL     OW 1756   0.226   3.305   3.063
  567SOL    HW1 1757   0.200   3.330   3.151
  567SOL    HW2 1758   0.176   3.362   3.005
  568SOL     OW 1759   1.082   1.903   0.955
  568SOL    HW1 1760   1.130   1.964   0.901
  568SOL    HW2 1761   0.995   1.942   0.964
  569SOL     OW 1762   3.148   4.614   1.413
  569SOL    HW1 1763   3.091   4.607   1.336
  569SOL    HW2 1764   3.220   4.554   1.395
  570SOL     OW 1765   2.654   1.522   3.433
  570SOL    HW1 1766   2.577   1.578   3.451
  570SOL    HW2 1767   2.728   1.583   3.434
  571SOL     OW 1768   1.263   3.260   3.964
  571SOL    HW1 1769   1.297   3.265   4.053
  571SOL    HW2 1770   1.296   3.338   3.921
  572SOL     OW 1771   0.475   1.944   2.196
  572SOL    HW1 1772   0.398   1.990   2.163
  572SOL    HW2 1773   0.486   1.975   2.286
  573SOL     OW 1774   3.517   0.886   1.060
  573SOL    HW1 1775   3.559   0.958   1.013
  573SOL    HW2 1776   3.424   0.910   1.062
  574SOL     OW 1777   3.256   0.219   0.933
  574SOL    HW1 1778   3.190   0.173   0.984
  574SOL    HW2 1779   3.340   0.187   0.968
  575SOL     OW 1780   4.717   4.098   2.877
  575SOL    HW1 1781   4.647   4.035   2.891
  575SOL    HW2 1782   4.795   4.055   2.912
  576SOL     OW 1783   1.062   0.805   4.963
  576SOL    HW1 1784   0.969   0.808   4.940
  576SOL    HW2 1785   1.077   0.715   0.015
  577SOL     OW 1786   0.250   0.326   0.159
  577SOL    HW1 1787   0.246   0.380   0.238
  577SOL    HW2 1788   0.203   0.377   0.093
  578SOL     OW 1789   0.304   4.451   2.630
  578SOL    HW1 1790   0.246   4.395   2.577
  578SOL    HW2 1791   0.260   4.458   2.714
  579SOL     OW 1792   4.440   0.370   0.962
  579SOL    HW1 1793   4.407   0.293   0.916
  579SOL    HW2 1794   4.438   0.440   0.896
  580SOL     OW 1795   1.413   4.779   0.713
  580SOL    HW1 1796   1.338   4.740   0.669
  580SOL    HW2 1797   1.408   4.872   0.693
  581SOL     OW 1798   2.577   2.031   4.020
  581SOL    HW1 1799   2.667   2.039   3.987
  581SOL    HW2 1800   2.541   2.119   4.016
  582SOL     OW 1801   3.502   0.645   3.373
  582SOL    HW1 1802   3.481   0.712   3.439
  582SOL    HW2 1803   3.422   0.638   3.321
  583SOL     OW 1804   4.554   1.550   0.497
  583SOL    HW1 1805   4.607   1.507   0.564
  583SOL    HW2 1806   4.609   1.622   0.465
  584SOL     OW 1807   4.066   3.113   1.234
  584SOL    HW1 1808   4.030   3.199   1.210
  584SOL    HW2 1809   4.070   3.065   1.151
  585SOL     OW 1810   0.105   3.127   3.346
  585SOL    HW1 1811   0.084   3.220   3.348
  585SOL    HW2 1812   0.050   3.088   3.414
  586SOL     OW 1813   4.124   3.530   4.536
  586SOL    HW1 1814   4.211   3.568   4.550
  586SOL    HW2 1815   4.063   3.598   4.564
  587SOL     OW 1816   3.657   0.619   2.227
  587SOL    HW1 1817   3.597   0.653   2.293
  587SOL    HW2 1818   3.603   0.608   2.149
  588SOL     OW 1819   4.143   4.376   1.828
  588SOL    HW1 1820   4.121   4.307   1.891
  588SOL    HW2 1821   4.238   4.367   1.815
  589SOL     OW 1822   1.258   0.119   1.994
  589SOL    HW1 1823   1.211   0.056   2.049
  589SOL    HW2 1824   1.314   0.167   2.055
  590SOL     OW 1825   4.448   2.292   2.987
  590SOL    HW1 1826   4.431   2.220   3.047
  590SOL    HW2 1827   4.507   2.350   3.036
  591SOL     OW 1828   4.574   2.893   3.977
  591SOL    HW1 1829   4.609   2.842   3.904
  591SOL    HW2 1830   4.630   2.971   3.982
  592SOL     OW 1831   3.945   1.134   2.735
  592SOL    HW1 1832   3.869   1.119   2.679
  592SOL    HW2 1833   3.945   1.061   2.796
  593SOL     OW 1834   2.186   1.784   3.628
  593SOL    HW1 1835   2.235   1.852   3.674
  593SOL    HW2 1836   2.130   1.831   3.566
  594SOL     OW 1837   3.069   2.288   0.288
  594SOL    HW1 1838   3.145   2.274   0.345
  594SOL    HW2 1839   3.069   2.211   0.231
  595SOL     OW 1840   0.157   2.910   0.036
  595SOL    HW1 1841   0.146   3.002   0.060
  595SOL    HW2 1842   0.143   2.862   0.118
  596SOL     OW 1843   0.220   3.907   0.641
  596SOL    HW1 1844   0.269   3.840   0.594
  596SOL    HW2 1845   0.205   3.868   0.728
  597SOL     OW 1846   1.399   3.880   4.208
  597SOL    HW1 1847   1.401   3.805   4.267
  597SOL    HW2 1848   1.321   3.928   4.232
  598SOL     OW 1849   1.559   4.264   3.145
  598SOL    HW1 1850   1.559   4.307   3.059
  598SOL    HW2 1851   1.520   4.179   3.129
  599SOL     OW 1852   1.888   4.633   4.204
  599SOL    HW1 1853   1.851   4.680   4.129
  599SOL    HW2 1854   1.942   4.565   4.165
  600SOL     OW 1855   1.585   0.354   3.520
  600SOL    HW1 1856   1.554   0.351   3.611
  600SOL    HW2 1857   1.513   0.317   3.469
  601SOL     OW 1858   1.518   4.433   1.930
  601SOL    HW1 1859   1.526   4.526   1.910
  601SOL    HW2 1860   1.495   4.392   1.847
  602SOL     OW 1861   1.785   1.112   4.894
  602SOL    HW1 1862   1.864   1.059   4.902
  602SOL    HW2 1863   1.717   1.061   4.938
  603SOL     OW 1864   2.375   2.194   0.511
  603SOL    HW1 1865   2.425   2.142   0.448
  603SOL    HW2 1866   2.441   2.246   0.557
  604SOL     OW 1867   3.253   0.954   0.547
  604SOL    HW1 1868   3.342   0.921   0.552
  604SOL    HW2 1869   3.198   0.875   0.553
  605SOL     OW 1870   1.101   0.740   3.644
  605SOL    HW1 1871   1.039   0.739   3.571
  605SOL    HW2 1872   1.153   0.660   3.631
  606SOL     OW 1873   2.710   1.258   3.514
  606SOL    HW1 1874   2.681   1.346   3.491
  606SOL    HW2 1875   2.734   1.218   3.431
  607SOL     OW 1876   1.050   1.373   4.888
  607SOL    HW1 1877   1.024   1.445   4.830
  607SOL    HW2 1878   0.980   1.369   4.953
  608SOL     OW 1879   0.914   3.719   3.443
  608SOL    HW1 1880   0.857   3.680   3.508
  608SOL    HW2 1881   0.921   3.653   3.374
  609SOL     OW 1882   1.629   0.679   2.528
  609SOL    HW1 1883   1.625   0.736   2.451
  609SOL    HW2 1884   1.591   0.732   2.598
  610SOL     OW 1885   1.834   3.463   3.545
  610SOL    HW1 1886   1.867   3.486   3.458
  610SOL    HW2 1887   1.781   3.385   3.530
  611SOL     OW 1888   4.158   0.827   4.688
  611SOL    HW1 1889   4.169   0.741   4.649
  611SOL    HW2 1890   4.082   0.864   4.644
  612SOL     OW 1891   3.862   0.759   3.478
  612SOL    HW1 1892   3.794   0.801   3.531
  612SOL    HW2 1893   3.837   0.667   3.475
  613SOL     OW 1894   0.177   0.377   2.168
  613SOL    HW1 1895   0.204   0.407   2.254
  613SOL    HW2 1896   0.091   0.418   2.155
  614SOL     OW 1897   2.811   2.054   3.860
  614SOL    HW1 1898   2.767   2.052   3.775
  614SOL    HW2 1899   2.891   2.105   3.844
  615SOL     OW 1900   0.077   4.546   1.829
  615SOL    HW1 1901   0.105   4.502   1.909
  615SOL    HW2 1902   0.030   4.479   1.780
  616SOL     OW 1903   2.434   0.911   4.661
  616SOL    HW1 1904   2.488   0.914   4.740
  616SOL    HW2 1905   2.453   0.826   4.622
  617SOL     OW 1906   2.333   0.300   3.363
  617SOL    HW1 1907   2.313   0.389   3.391
  617SOL    HW2 1908   2.425   0.287   3.387
  618SOL     OW 1909   0.139   3.657   4.813
  618SOL    HW1 1910   0.170   3.680   4.900
  618SOL    HW2 1911   0.051   3.695   4.808
  619SOL     OW 1912   2.955   2.411   0.500
  619SOL    HW1 1913   3.000   2.377   0.422
  619SOL    HW2 1914   2.953   2.506   0.488
  620SOL     OW 1915   3.426   2.823   0.044
  620SOL    HW1 1916   3.378   2.906   0.056
  620SOL    HW2 1917   3.421   2.806   4.926
  621SOL     OW 1918   3.165   4.590   0.206
  621SOL    HW1 1919   3.205   4.644   0.275
  621SOL    HW2 1920   3.158   4.648   0.131
  622SOL     OW 1921   1.575   0.859   4.759
  622SOL    HW1 1922   1.536   0.939   4.793
  622SOL    HW2 1923   1.553   0.792   4.824
  623SOL     OW 1924   1.327   2.477   2.350
  623SOL    HW1 1925   1.399   2.511   2.296
  623SOL    HW2 1926   1.287   2.554   2.389
  624SOL     OW 1927   2.738   3.578   2.025
  624SOL    HW1 1928   2.646   3.554   2.028
  624SOL    HW2 1929   2.784   3.498   2.050
  625SOL     OW 1930   2.609   4.393   3.057
  625SOL    HW1 1931   2.513   4.394   3.055
  625SOL    HW2 1932   2.631   4.399   3.150
  626SOL     OW 1933   3.867   2.381   2.067
  626SOL    HW1 1934   3.890   2.461   2.021
  626SOL    HW2 1935   3.929   2.316   2.034
  627SOL     OW 1936   1.226   1.304   2.043
  627SOL    HW1 1937   1.319   1.298   2.025
  627SOL    HW2 1938   1.221   1.344   2.130
  628SOL     OW 1939   0.835   0.278   3.160
  628SOL    HW1 1940   0.765   0.214   3.172
  628SOL    HW2 1941   0.794   0.363   3.176
  629SOL     OW 1942   1.726   0.962   4.331
  629SOL    HW1 1943   1.727   0.918   4.416
  629SOL    HW2 1944   1.789   1.034   4.341
  630SOL     OW 1945   1.280   3.319   0.150
  630SOL    HW1 1946   1.368   3.354   0.136
  630SOL    HW2 1947   1.230   3.351   0.075
  631SOL     OW 1948   1.038   0.004   0.706
  631SOL    HW1 1949   1.119   0.055   0.710
  631SOL    HW2 1950   1.017   4.961   0.797
  632SOL     OW 1951   2.329   2.273   2.366
  632SOL    HW1 1952   2.406   2.216   2.355
  632SOL    HW2 1953   2.255   2.217   2.342
  633SOL     OW 1954   0.540   0.144   4.484
  633SOL    HW1 1955   0.540   0.150   4.579
  633SOL    HW2 1956   0.513   0.231   4.454
  634SOL     OW 1957   2.872   3.140   1.440
  634SOL    HW1 1958   2.880   3.045   1.430
  634SOL    HW2 1959   2.938   3.176   1.381
  635SOL     OW 1960   0.695   1.745   1.342
  635SOL    HW1 1961   0.695   1.654   1.313
  635SOL    HW2 1962   0.786   1.773   1.337
  636SOL     OW 1963   3.502   1.273   0.730
  636SOL    HW1 1964   3.489   1.263   0.636
  636SOL    HW2 1965   3.578   1.329   0.739
  637SOL     OW 1966   1.157   1.547   1.901
  637SOL    HW1 1967   1.106   1.586   1.972
  637SOL    HW2 1968   1.185   1.462   1.934
  638SOL     OW 1969   0.390   3.435   2.164
  638SOL    HW1 1970   0.332   3.426   2.240
  638SOL    HW2 1971   0.467   3.480   2.197
  639SOL     OW 1972   2.416   1.373   4.478
  639SOL    HW1 1973   2.461   1.289   4.488
  639SOL    HW2 1974   2.484   1.433   4.447
  640SOL     OW 1975   2.396   4.728   2.827
  640SOL    HW1 1976   2.485   4.755   2.805
  640SOL    HW2 1977   2.383   4.761   2.916
  641SOL     OW 1978   0.611   0.222   1.338
  641SOL    HW1 1979   0.556   0.146   1.357
  641SOL    HW2 1980   0.580   0.253   1.253
  642SOL     OW 1981   1.878   1.384   4.946
  642SOL    HW1 1982   1.873   1.289   4.942
  642SOL    HW2 1983   1.971   1.403   4.960
  643SOL     OW 1984   2.549   3.742   4.252
  643SOL    HW1 1985   2.526   3.714   4.164
  643SOL    HW2 1986   2.531   3.836   4.254
  644SOL     OW 1987   1.671   0.900   3.474
  644SOL    HW1 1988   1.764   0.904   3.498
  644SOL    HW2 1989   1.647   0.808   3.485
  645SOL     OW 1990   0.709   4.052   4.858
  645SOL    HW1 1991   0.796   4.035   4.823
  645SOL    HW2 1992   0.725   4.098   4.940
  646SOL     OW 1993   1.076   3.103   4.294
  646SOL    HW1 1994   1.159   3.125   4.252
  646SOL    HW2 1995   1.099   3.083   4.385
  647SOL     OW 1996   1.176   0.945   4.460
  647SOL    HW1 1997   1.121   1.009   4.416
  647SOL    HW2 1998   1.251   0.933   4.401
  648SOL     OW 1999   0.277   4.294   3.833
  648SOL    HW1 2000   0.368   4.323   3.829
  648SOL    HW2 2001   0.282   4.198   3.824
  649SOL     OW 2002   0.368   2.396   2.475
  649SOL    HW1 2003   0.337   2.484   2.454
  649SOL    HW2 2004   0.302   2.361   2.534
  650SOL     OW 2005   3.518   3.324   3.379
  650SOL    HW1 2006   3.470   3.310   3.461
  650SOL    HW2 2007   3.526   3.236   3.341
  651SOL     OW 2008   3.169   0.437   3.116
  651SOL    HW1 2009   3.108   0.445   3.043
  651SOL    HW2 2010   3.253   0.419   3.075
  652SOL     OW 2011   4.291   2.271   1.981
  652SOL    HW1 2012   4.305   2.225   1.899
  652SOL    HW2 2013   4.236   2.346   1.957
  653SOL     OW 2014   0.601   3.254   2.910
  653SOL    HW1 2015   0.634   3.311   2.842
  653SOL    HW2 2016   0.677   3.204   2.939
  654SOL     OW 2017   3.126   0.948   2.251
  654SOL    HW1 2018   3.190   1.019   2.241
  654SOL    HW2 2019   3.177   0.875   2.286
  655SOL     OW 2020   3.246   3.148   2.321
  655SOL    HW1 2021   3.253   3.139   2.416
  655SOL    HW2 2022   3.335   3.168   2.292
  656SOL     OW 2023   0.365   2.802   3.990
  656SOL    HW1 2024   0.307   2.728   3.970
  656SOL    HW2 2025   0.307   2.878   3.993
  657SOL     OW 2026   1.734   3.050   2.719
  657SOL    HW1 2027   1.690   3.004   2.790
  657SOL    HW2 2028   1.822   3.067   2.752
  658SOL     OW 2029   1.567   3.414   4.738
  658SOL    HW1 2030   1.500   3.360   4.779
  658SOL    HW2 2031   1.635   3.352   4.711
  659SOL     OW 2032   4.138   4.432   3.106
  659SOL    HW1 2033   4.113   4.456   3.195
  659SOL    HW2 2034   4.233   4.419   3.111
  660SOL     OW 2035   2.030   0.061   0.210
  660SOL    HW1 2036   1.952   0.087   0.161
  660SOL    HW2 2037   2.099   0.119   0.178
  661SOL     OW 2038   4.804   2.413   2.293
  661SOL    HW1 2039   4.766   2.412   2.381
  661SOL    HW2 2040   4.896   2.390   2.306
  662SOL     OW 2041   2.611   4.637   0.523
  662SOL    HW1 2042   2.628   4.545   0.543
  662SOL    HW2 2043   2.580   4.673   0.606
  663SOL     OW 2044   4.238   4.421   4.416
  663SOL    HW1 2045   4.236   4.515   4.400
  663SOL    HW2 2046   4.147   4.398   4.436
  664SOL     OW 2047   1.089   3.324   1.507
  664SOL    HW1 2048   1.033   3.365   1.573
  664SOL    HW2 2049   1.144   3.396   1.474
  665SOL     OW 2050   4.534   4.293   4.905
  665SOL    HW1 2051   4.499   4.361   4.963
  665SOL    HW2 2052   4.572   4.341   4.832
  666SOL     OW 2053   2.019   3.411   0.162
  666SOL    HW1 2054   2.079   3.392   0.089
  666SOL    HW2 2055   2.063   3.375   0.239
  667SOL     OW 2056   0.537   4.254   1.598
  667SOL    HW1 2057   0.631   4.265   1.607
  667SOL    HW2 2058   0.500   4.339   1.624
  668SOL     OW 2059   1.034   3.492   1.787
  668SOL    HW1 2060   0.943   3.522   1.778
  668SOL    HW2 2061   1.068   3.543   1.860
  669SOL     OW 2062   2.530   2.884   1.554
  669SOL    HW1 2063   2.577   2.951   1.604
  669SOL    HW2 2064   2.454   2.930   1.518
  670SOL     OW 2065   0.844   2.162   3.638
  670SOL    HW1 2066   0.924   2.109   3.638
  670SOL    HW2 2067   0.825   2.177   3.546
  671SOL     OW 2068   0.721   0.765   3.392
  671SOL    HW1 2069   0.629   0.742   3.407
  671SOL    HW2 2070   0.720   0.813   3.309
  672SOL     OW 2071   2.965   4.544   4.005
  672SOL    HW1 2072   2.889   4.527   4.060
  672SOL    HW2 2073   3.027   4.474   4.027
  673SOL     OW 2074   0.350   4.288   3.155
  673SOL    HW1 2075   0.348   4.196   3.131
  673SOL    HW2 2076   0.435   4.300   3.197
  674SOL     OW 2077   2.044   3.362   2.997
  674SOL    HW1 2078   1.978   3.396   2.936
  674SOL    HW2 2079   2.118   3.422   2.986
  675SOL     OW 2080   4.648   4.008   1.579
  675SOL    HW1 2081   4.593   4.056   1.641
  675SOL    HW2 2082   4.696   3.945   1.634
  676SOL     OW 2083   3.857   3.284   0.528
  676SOL    HW1 2084   3.804   3.233   0.467
  676SOL    HW2 2085   3.812   3.368   0.535
  677SOL     OW 2086   4.857   4.275   4.672
  677SOL    HW1 2087   4.867   4.343   4.739
  677SOL    HW2 2088   4.882   4.319   4.591
  678SOL     OW 2089   4.972   3.798   2.218
  678SOL    HW1 2090   0.034   3.710   2.217
  678SOL    HW2 2091   4.885   3.787   2.181
  679SOL     OW 2092   0.335   3.884   1.535
  679SOL    HW1 2093   0.395   3.930   1.594
  679SOL    HW2 2094   0.372   3.797   1.525
  680SOL     OW 2095   4.008   2.425   4.446
  680SOL    HW1 2096   3.962   2.497   4.404
  680SOL    HW2 2097   4.092   2.463   4.474
  681SOL     OW 2098   0.871   2.229   1.067
  681SOL    HW1 2099   0.814   2.300   1.096
  681SOL    HW2 2100   0.955   2.246   1.112
  682SOL     OW 2101   0.975   4.740   4.449
  682SOL    HW1 2102   1.052   4.775   4.494
  682SOL    HW2 2103   0.944   4.812   4.395
  683SOL     OW 2104   3.072   2.282   4.581
  683SOL    HW1 2105   3.140   2.335   4.622
  683SOL    HW2 2106   3.037   2.338   4.511
  684SOL     OW 2107   2.171   4.831   1.242
  684SOL    HW1 2108   2.082   4.798   1.249
  684SOL    HW2 2109   2.217   4.791   1.316
  685SOL     OW 2110   4.972   4.677   1.514
  685SOL    HW1 2111   0.031   4.683   1.602
  685SOL    HW2 2112   0.061   4.625   1.466
  686SOL     OW 2113   4.724   2.889   0.190
  686SOL    HW1 2114   4.707   2.805   0.233
  686SOL    HW2 2115   4.672   2.952   0.239
  687SOL     OW 2116   4.173   1.383   0.304
  687SOL    HW1 2117   4.193   1.437   0.227
  687SOL    HW2 2118   4.156   1.447   0.374
  688SOL     OW 2119   1.619   1.870   4.487
  688SOL    HW1 2120   1.612   1.778   4.460
  688SOL    HW2 2121   1.712   1.883   4.502
  689SOL     OW 2122   2.569   3.213   2.599
  689SOL    HW1 2123   2.528   3.153   2.537
  689SOL    HW2 2124   2.642   3.163   2.637
  690SOL     OW 2125   4.832   3.968   4.679
  690SOL    HW1 2126   4.843   4.058   4.651
  690SOL    HW2 2127   4.887   3.960   4.757
  691SOL     OW 2128   4.455   0.610   4.040
  691SOL    HW1 2129   4.479   0.533   3.989
  691SOL    HW2 2130   4.538   0.656   4.055
  692SOL     OW 2131   4.437   4.786   4.151
  692SOL    HW1 2132   4.373   4.715   4.159
  692SOL    HW2 2133   4.384   4.864   4.136
  693SOL     OW 2134   2.125   2.178   1.757
  693SOL    HW1 2135   2.094   2.260   1.720
  693SOL    HW2 2136   2.195   2.150   1.698
  694SOL     OW 2137   3.949   2.518   2.603
  694SOL    HW1 2138   3.964   2.610   2.625
  694SOL    HW2 2139   4.031   2.473   2.625
  695SOL     OW 2140   4.107   0.471   3.778
  695SOL    HW1 2141   4.161   0.544   3.808
  695SOL    HW2 2142   4.019   0.507   3.770
  696SOL     OW 2143   2.374   1.252   4.193
  696SOL    HW1 2144   2.337   1.294   4.270
  696SOL    HW2 2145   2.469   1.266   4.201
  697SOL     OW 2146   2.016   2.361   1.352
  697SOL    HW1 2147   2.014   2.265   1.360
  697SOL    HW2 2148   2.103   2.380   1.317
  698SOL     OW 2149   0.386   2.658   0.224
  698SOL    HW1 2150   0.415   2.700   0.144
  698SOL    HW2 2151   0.428   2.571   0.222
  699SOL     OW 2152   4.678   4.441   4.382
  699SOL    HW1 2153   4.654   4.349   4.379
  699SOL    HW2 2154   4.635   4.475   4.461
  700SOL     OW 2155   0.809   1.611   1.630
  700SOL    HW1 2156   0.838   1.700   1.651
  700SOL    HW2 2157   0.745   1.623   1.559
  701SOL     OW 2158   4.278   2.857   0.288
  701SOL    HW1 2159   4.222   2.935   0.289
  701SOL    HW2 2160   4.356   2.883   0.336
  702SOL     OW 2161   1.302   1.708   0.369
  702SOL    HW1 2162   1.375   1.648   0.351
  702SOL    HW2 2163   1.299   1.715   0.464
  703SOL     OW 2164   3.319   2.029   1.431
  703SOL    HW1 2165   3.324   1.935   1.418
  703SOL    HW2 2166   3.357   2.044   1.518
  704SOL     OW 2167   1.764   3.277   0.356
  704SOL    HW1 2168   1.856   3.253   0.349
  704SOL    HW2 2169   1.759   3.367   0.322
  705SOL     OW 2170   0.793   1.408   4.044
  705SOL    HW1 2171   0.793   1.312   4.037
  705SOL    HW2 2172   0.880   1.428   4.079
  706SOL     OW 2173   1.431   1.564   2.255
  706SOL    HW1 2174   1.476   1.601   2.331
  706SOL    HW2 2175   1.384   1.488   2.291
  707SOL     OW 2176   1.618   1.558   3.172
  707SOL    HW1 2177   1.596   1.504   3.096
  707SOL    HW2 2178   1.634   1.645   3.136
  708SOL     OW 2179   0.067   2.604   0.129
  708SOL    HW1 2180   0.044   2.511   0.123
  708SOL    HW2 2181   0.157   2.608   0.098
  709SOL     OW 2182   3.055   2.836   1.771
  709SOL    HW1 2183   3.019   2.917   1.734
  709SOL    HW2 2184   3.133   2.864   1.818
  710SOL     OW 2185   3.754   4.740   0.701
  710SOL    HW1 2186   3.840   4.709   0.673
  710SOL    HW2 2187   3.769   4.831   0.728
  711SOL     OW 2188   1.382   3.697   2.035
  711SOL    HW1 2189   1.464   3.650   2.052
  711SOL    HW2 2190   1.402   3.756   1.963
  712SOL     OW 2191   3.041   2.587   0.207
  712SOL    HW1 2192   3.089   2.505   0.209
  712SOL    HW2 2193   3.108   2.654   0.198
  713SOL     OW 2194   2.714   2.619   2.916
  713SOL    HW1 2195   2.794   2.665   2.892
  713SOL    HW2 2196   2.698   2.644   3.007
  714SOL     OW 2197   4.767   0.376   2.932
  714SOL    HW1 2198   4.790   0.342   3.018
  714SOL    HW2 2199   4.741   0.299   2.882
  715SOL     OW 2200   3.249   0.387   4.824
  715SOL    HW1 2201   3.299   0.449   4.878
  715SOL    HW2 2202   3.218   0.321   4.887
  716SOL     OW 2203   4.409   2.193   0.904
  716SOL    HW1 2204   4.454   2.267   0.864
  716SOL    HW2 2205   4.468   2.164   0.974
  717SOL     OW 2206   2.470   0.316   2.270
  717SOL    HW1 2207   2.472   0.339   2.363
  717SOL    HW2 2208   2.388   0.268   2.259
  718SOL     OW 2209   2.926   4.621   0.954
  718SOL    HW1 2210   2.939   4.705   0.909
  718SOL    HW2 2211   2.903   4.560   0.884
  719SOL     OW 2212   1.807   0.473   2.504
  719SOL    HW1 2213   1.748   0.542   2.535
  719SOL    HW2 2214   1.877   0.470   2.569
  720SOL     OW 2215   0.114   3.279   1.721
  720SOL    HW1 2216   0.106   3.186   1.699
  720SOL    HW2 2217   0.209   3.293   1.727
  721SOL     OW 2218   4.808   0.969   0.338
  721SOL    HW1 2219   4.854   0.979   0.421
  721SOL    HW2 2220   4.832   0.882   0.307
  722SOL     OW 2221   2.386   2.012   4.284
  722SOL    HW1 2222   2.430   2.096   4.291
  722SOL    HW2 2223   2.451   1.954   4.245
  723SOL     OW 2224   2.618   1.529   1.167
  723SOL    HW1 2225   2.528   1.546   1.194
  723SOL    HW2 2226   2.628   1.578   1.085
  724SOL     OW 2227   2.673   3.655   1.749
  724SOL    HW1 2228   2.672   3.641   1.844
  724SOL    HW2 2229   2.694   3.748   1.738
  725SOL     OW 2230   4.725   3.018   2.195
  725SOL    HW1 2231   4.780   3.058   2.263
  725SOL    HW2 2232   4.729   3.079   2.122
  726SOL     OW 2233   3.329   0.775   1.264
  726SOL    HW1 2234   3.236   0.770   1.284
  726SOL    HW2 2235   3.337   0.853   1.208
  727SOL     OW 2236   4.518   2.366   2.552
  727SOL    HW1 2237   4.552   2.283   2.587
  727SOL    HW2 2238   4.500   2.347   2.460
  728SOL     OW 2239   4.651   0.086   3.656
  728SOL    HW1 2240   4.634   0.033   3.734
  728SOL    HW2 2241   4.681   0.170   3.690
  729SOL     OW 2242   2.318   0.481   3.984
  729SOL    HW1 2243   2.333   0.512   3.895
  729SOL    HW2 2244   2.388   0.522   4.036
  730SOL     OW 2245   3.502   2.141   2.123
  730SOL    HW1 2246   3.524   2.059   2.166
  730SOL    HW2 2247   3.412   2.159   2.150
  731SOL     OW 2248   3.051   1.482   0.657
  731SOL    HW1 2249   3.065   1.399   0.612
  731SOL    HW2 2250   3.129   1.493   0.712
  732SOL     OW 2251   3.763   1.913   3.973
  732SOL    HW1 2252   3.823   1.892   3.901
  732SOL    HW2 2253   3.820   1.948   4.042
  733SOL     OW 2254   2.656   2.501   4.665
  733SOL    HW1 2255   2.662   2.414   4.627
  733SOL    HW2 2256   2.597   2.492   4.739
  734SOL     OW 2257   3.494   2.550   4.216
  734SOL    HW1 2258   3.490   2.454   4.225
  734SOL    HW2 2259   3.443   2.569   4.137
  735SOL     OW 2260   2.287   4.020   1.403
  735SOL    HW1 2261   2.195   4.039   1.420
  735SOL    HW2 2262   2.304   3.939   1.451
  736SOL     OW 2263   0.560   1.279   4.556
  736SOL    HW1 2264   0.521   1.206   4.604
  736SOL    HW2 2265   0.502   1.293   4.482
  737SOL     OW 2266   0.286   4.578   1.088
  737SOL    HW1 2267   0.224   4.526   1.037
  737SOL    HW2 2268   0.348   4.514   1.123
  738SOL     OW 2269   3.870   0.204   1.294
  738SOL    HW1 2270   3.878   0.181   1.387
  738SOL    HW2 2271   3.824   0.288   1.294
  739SOL     OW 2272   2.443   2.627   2.734
  739SOL    HW1 2273   2.528   2.614   2.777
  739SOL    HW2 2274   2.395   2.546   2.750
  740SOL     OW 2275   0.430   0.750   2.168
  740SOL    HW1 2276   0.460   0.710   2.250
  740SOL    HW2 2277   0.374   0.684   2.128
  741SOL     OW 2278   4.083   0.457   3.314
  741SOL    HW1 2279   4.155   0.433   3.373
  741SOL    HW2 2280   4.008   0.406   3.345
  742SOL     OW 2281   4.475   0.294   4.282
  742SOL    HW1 2282   4.507   0.239   4.354
  742SOL    HW2 2283   4.546   0.356   4.265
  743SOL     OW 2284   3.941   3.832   2.560
  743SOL    HW1 2285   3.988   3.878   2.490
  743SOL    HW2 2286   3.858   3.807   2.520
  744SOL     OW 2287   0.503   2.949   1.025
  744SOL    HW1 2288   0.562   2.878   1.051
  744SOL    HW2 2289   0.442   2.907   0.964
  745SOL     OW 2290   3.507   2.858   2.584
  745SOL    HW1 2291   3.517   2.852   2.679
  745SOL    HW2 2292   3.516   2.768   2.554
  746SOL     OW 2293   2.155   3.351   4.105
  746SOL    HW1 2294   2.148   3.330   4.198
  746SOL    HW2 2295   2.193   3.439   4.102
  747SOL     OW 2296   0.172   2.389   3.541
  747SOL    HW1 2297   0.263   2.395   3.514
  747SOL    HW2 2298   0.152   2.474   3.581
  748SOL     OW 2299   3.281   2.345   4.263
  748SOL    HW1 2300   3.195   2.312   4.238
  748SOL    HW2 2301   3.342   2.276   4.235
  749SOL     OW 2302   1.129   2.189   2.438
  749SOL    HW1 2303   1.100   2.272   2.475
  749SOL    HW2 2304   1.205   2.212   2.384
  750SOL     OW 2305   3.937   1.845   1.280
  750SOL    HW1 2306   3.907   1.807   1.198
  750SOL    HW2 2307   4.026   1.811   1.291
  751SOL     OW 2308   2.423   2.446   4.351
  751SOL    HW1 2309   2.452   2.537   4.357
  751SOL    HW2 2310   2.330   2.449   4.374
  752SOL     OW 2311   2.362   1.002   4.112
  752SOL    HW1 2312   2.381   0.998   4.018
  752SOL    HW2 2313   2.358   1.095   4.132
  753SOL     OW 2314   4.183   2.065   0.812
  753SOL    HW1 2315   4.250   2.106   0.866
  753SOL    HW2 2316   4.127   2.019   0.875
  754SOL     OW 2317   0.604   1.703   3.578
  754SOL    HW1 2318   0.660   1.668   3.648
  754SOL    HW2 2319   0.538   1.635   3.564
  755SOL     OW 2320   0.622   3.238   0.143
  755SOL    HW1 2321   0.582   3.158   0.110
  755SOL    HW2 2322   0.701   3.209   0.188
  756SOL     OW 2323   3.210   4.760   2.236
  756SOL    HW1 2324   3.199   4.854   2.250
  756SOL    HW2 2325   3.229   4.725   2.323
  757SOL     OW 2326   4.440   3.323   0.760
  757SOL    HW1 2327   4.460   3.283   0.844
  757SOL    HW2 2328   4.360   3.374   0.777
  758SOL     OW 2329   3.611   1.522   3.198
  758SOL    HW1 2330   3.584   1.598   3.147
  758SOL    HW2 2331   3.603   1.448   3.138
  759SOL     OW 2332   2.792   0.638   1.228
  759SOL    HW1 2333   2.800   0.704   1.297
  759SOL    HW2 2334   2.882   0.612   1.208
  760SOL     OW 2335   4.791   2.165   0.848
  760SOL    HW1 2336   4.861   2.186   0.910
  760SOL    HW2 2337   4.819   2.083   0.807
  761SOL     OW 2338   0.632   3.649   2.923
  761SOL    HW1 2339   0.625   3.584   2.992
  761SOL    HW2 2340   0.598   3.729   2.962
  762SOL     OW 2341   3.880   1.932   2.198
  762SOL    HW1 2342   3.943   1.860   2.207
  762SOL    HW2 2343   3.874   1.946   2.103
  763SOL     OW 2344   1.843   4.299   0.953
  763SOL    HW1 2345   1.880   4.246   1.024
  763SOL    HW2 2346   1.892   4.380   0.956
  764SOL     OW 2347   4.021   2.785   2.739
  764SOL    HW1 2348   4.089   2.772   2.804
  764SOL    HW2 2349   4.026   2.878   2.717
  765SOL     OW 2350   0.947   3.326   4.620
  765SOL    HW1 2351   0.937   3.295   4.710
  765SOL    HW2 2352   0.943   3.246   4.566
  766SOL     OW 2353   0.085   3.689   3.851
  766SOL    HW1 2354   0.114   3.665   3.939
  766SOL    HW2 2355   0.144   3.642   3.792
  767SOL     OW 2356   0.733   2.718   0.155
  767SOL    HW1 2357   0.798   2.668   0.105
  767SOL    HW2 2358   0.699   2.782   0.093
  768SOL     OW 2359   0.015   4.024   3.714
  768SOL    HW1 2360   0.093   3.975   3.738
  768SOL    HW2 2361   4.949   4.044   3.797
  769SOL     OW 2362   1.096   2.637   0.633
  769SOL    HW1 2363   1.071   2.654   0.542
  769SOL    HW2 2364   1.084   2.721   0.677
  770SOL     OW 2365   2.468   4.674   3.292
  770SOL    HW1 2366   2.473   4.764   3.261
  770SOL    HW2 2367   2.376   4.650   3.281
  771SOL     OW 2368   1.483   2.658   0.121
  771SOL    HW1 2369   1.565   2.616   0.146
  771SOL    HW2 2370   1.425   2.644   0.196
  772SOL     OW 2371   2.048   3.704   0.339
  772SOL    HW1 2372   2.046   3.757   0.259
  772SOL    HW2 2373   2.124   3.647   0.327
  773SOL     OW 2374   2.260   2.243   2.008
  773SOL    HW1 2375   2.190   2.212   1.951
  773SOL    HW2 2376   2.216   2.302   2.070
  774SOL     OW 2377   0.975   1.494   3.528
  774SOL    HW1 2378   0.964   1.569   3.587
  774SOL    HW2 2379   0.928   1.519   3.448
  775SOL     OW 2380   4.538   1.220   1.510
  775SOL    HW1 2381   4.514   1.311   1.496
  775SOL    HW2 2382   4.599   1.222   1.584
  776SOL     OW 2383   4.589   4.885   1.908
  776SOL    HW1 2384   4.572   4.829   1.984
  776SOL    HW2 2385   4.684   4.899   1.909
  777SOL     OW 2386   4.339   2.988   2.707
  777SOL    HW1 2387   4.323   3.080   2.687
  777SOL    HW2 2388   4.366   2.949   2.624
  778SOL     OW 2389   3.875   4.219   3.224
  778SOL    HW1 2390   3.842   4.309   3.227
  778SOL    HW2 2391   3.844   4.185   3.140
  779SOL     OW 2392   3.673   1.732   0.360
  779SOL    HW1 2393   3.614   1.713   0.433
  779SOL    HW2 2394   3.714   1.648   0.341
  780SOL     OW 2395   2.490   3.213   4.753
  780SOL    HW1 2396   2.582   3.192   4.767
  780SOL    HW2 2397   2.454   3.225   4.841
  781SOL     OW 2398   3.891   3.143   4.469
  781SOL    HW1 2399   3.926   3.177   4.551
  781SOL    HW2 2400   3.941   3.189   4.401
  782SOL     OW 2401   2.396   4.019   1.168
  782SOL    HW1 2402   2.349   4.041   1.248
  782SOL    HW2 2403   2.438   3.935   1.187
  783SOL     OW 2404   0.385   1.449   1.571
  783SOL    HW1 2405   0.293   1.428   1.554
  783SOL    HW2 2406   0.388   1.545   1.570
  784SOL     OW 2407   0.253   0.788   1.514
  784SOL    HW1 2408   0.222   0.717   1.458
  784SOL    HW2 2409   0.213   0.867   1.477
  785SOL     OW 2410   3.917   0.455   1.912
  785SOL    HW1 2411   3.846   0.406   1.954
  785SOL    HW2 2412   3.995   0.432   1.962
  786SOL     OW 2413   4.852   3.974   1.247
  786SOL    HW1 2414   4.854   3.888   1.289
  786SOL    HW2 2415   4.811   3.959   1.162
  787SOL     OW 2416   0.219   0.324   3.251
  787SOL    HW1 2417   0.164   0.390   3.292
  787SOL    HW2 2418   0.182   0.240   3.280
  788SOL     OW 2419   4.343   3.096   0.627
  788SOL    HW1 2420   4.409   3.129   0.689
  788SOL    HW2 2421   4.269   3.155   0.638
  789SOL     OW 2422   1.176   3.481   3.655
  789SOL    HW1 2423   1.143   3.395   3.683
  789SOL    HW2 2424   1.263   3.488   3.694
  790SOL     OW 2425   3.430   3.309   2.660
  790SOL    HW1 2426   3.475   3.316   2.745
  790SOL    HW2 2427   3.393   3.396   2.646
  791SOL     OW 2428   1.604   2.662   4.431
  791SOL    HW1 2429   1.673   2.618   4.381
  791SOL    HW2 2430   1.523   2.617   4.404
  792SOL     OW 2431   3.678   3.835   3.100
  792SOL    HW1 2432   3.600   3.857   3.151
  792SOL    HW2 2433   3.652   3.846   3.009
  793SOL     OW 2434   1.543   0.233   4.394
  793SOL    HW1 2435   1.535   0.268   4.306
  793SOL    HW2 2436   1.632   0.255   4.421
  794SOL     OW 2437   0.356   4.218   4.120
  794SOL    HW1 2438   0.386   4.245   4.033
  794SOL    HW2 2439   0.346   4.123   4.114
  795SOL     OW 2440   2.276   4.407   2.520
  795SOL    HW1 2441   2.348   4.359   2.559
  795SOL    HW2 2442   2.272   4.377   2.429
  796SOL     OW 2443   0.947   4.708   1.860
  796SOL    HW1 2444   0.894   4.755   1.924
  796SOL    HW2 2445   0.886   4.686   1.790
  797SOL     OW 2446   2.112   3.786   2.068
  797SOL    HW1 2447   2.095   3.701   2.107
  797SOL    HW2 2448   2.203   3.782   2.039
  798SOL     OW 2449   3.587   2.600   1.776
  798SOL    HW1 2450   3.539   2.592   1.859
  798SOL    HW2 2451   3.567   2.519   1.729
  799SOL     OW 2452   2.183   1.009   0.899
  799SOL    HW1 2453   2.199   0.925   0.941
  799SOL    HW2 2454   2.205   0.996   0.807
  800SOL     OW 2455   0.182   4.200   4.603
  800SOL    HW1 2456   0.205   4.224   4.693
  800SOL    HW2 2457   0.092   4.230   4.593
  801SOL     OW 2458   0.761   1.511   2.106
  801SOL    HW1 2459   0.677   1.544   2.138
  801SOL    HW2 2460   0.760   1.418   2.125
  802SOL     OW 2461   0.674   2.166   4.935
  802SOL    HW1 2462   0.594   2.138   0.004
  802SOL    HW2 2463   0.658   2.257   4.912
  803SOL     OW 2464   4.860   1.380   0.600
  803SOL    HW1 2465   4.935   1.437   0.614
  803SOL    HW2 2466   4.896   1.302   0.557
  804SOL     OW 2467   3.893   1.838   4.391
  804SOL    HW1 2468   3.905   1.827   4.485
  804SOL    HW2 2469   3.864   1.929   4.381
  805SOL     OW 2470   0.434   3.143   4.464
  805SOL    HW1 2471   0.471   3.151   4.376
  805SOL    HW2 2472   0.397   3.055   4.466
  806SOL     OW 2473   3.958   2.031   4.108
  806SOL    HW1 2474   4.051   2.024   4.133
  806SOL    HW2 2475   3.920   2.090   4.173
  807SOL     OW 2476   2.967   3.274   0.715
  807SOL    HW1 2477   3.000   3.225   0.639
  807SOL    HW2 2478   3.046   3.297   0.764
  808SOL     OW 2479   0.734   0.666   1.364
  808SOL    HW1 2480   0.665   0.706   1.311
  808SOL    HW2 2481   0.692   0.649   1.448
  809SOL     OW 2482   2.190   3.624   4.066
  809SOL    HW1 2483   2.144   3.652   3.986
  809SOL    HW2 2484   2.282   3.636   4.045
  810SOL     OW 2485   2.175   3.132   0.618
  810SOL    HW1 2486   2.160   3.174   0.703
  810SOL    HW2 2487   2.265   3.100   0.623
  811SOL     OW 2488   0.371   1.255   4.908
  811SOL    HW1 2489   0.289   1.301   4.890
  811SOL    HW2 2490   0.345   1.181   4.963
  812SOL     OW 2491   3.216   0.709   2.626
  812SOL    HW1 2492   3.236   0.741   2.714
  812SOL    HW2 2493   3.122   0.724   2.616
  813SOL     OW 2494   3.705   3.341   2.107
  813SOL    HW1 2495   3.798   3.364   2.109
  813SOL    HW2 2496   3.693   3.296   2.024
  814SOL     OW 2497   3.797   0.552   0.205
  814SOL    HW1 2498   3.845   0.476   0.240
  814SOL    HW2 2499   3.814   0.622   0.268
  815SOL     OW 2500   0.904   2.368   0.198
  815SOL    HW1 2501   0.887   2.373   0.292
  815SOL    HW2 2502   0.990   2.409   0.187
  816SOL     OW 2503   0.010   3.547   0.656
  816SOL    HW1 2504   4.924   3.613   0.624
  816SOL    HW2 2505   4.968   3.540   0.749
  817SOL     OW 2506   2.696   2.892   4.415
  817SOL    HW1 2507   2.649   2.966   4.375
  817SOL    HW2 2508   2.788   2.909   4.396
  818SOL     OW 2509   3.617   1.660   3.413
  818SOL    HW1 2510   3.707   1.692   3.405
  818SOL    HW2 2511   3.614   1.584   3.355
  819SOL     OW 2512   4.483   0.391   3.406
  819SOL    HW1 2513   4.403   0.398   3.458
  819SOL    HW2 2514   4.541   0.458   3.443
  820SOL     OW 2515   3.637   1.044   3.083
  820SOL    HW1 2516   3.697   0.972   3.101
  820SOL    HW2 2517   3.630   1.045   2.987
  821SOL     OW 2518   2.641   2.939   2.747
  821SOL    HW1 2519   2.553   2.943   2.710
  821SOL    HW2 2520   2.675   2.854   2.719
  822SOL     OW 2521   3.231   2.913   4.278
  822SOL    HW1 2522   3.247   2.921   4.184
  822SOL    HW2 2523   3.318   2.921   4.318
  823SOL     OW 2524   2.389   1.081   2.017
  823SOL    HW1 2525   2.388   1.086   1.922
  823SOL    HW2 2526   2.482   1.075   2.040
  824SOL     OW 2527   4.855   4.000   3.981
  824SOL    HW1 2528   4.898   3.947   4.048
  824SOL    HW2 2529   4.777   3.950   3.957
  825SOL     OW 2530   0.001   2.190   4.518
  825SOL    HW1 2531   0.011   2.284   4.501
  825SOL    HW2 2532   4.940   2.156   4.437
  826SOL     OW 2533   2.720   4.812   0.821
  826SOL    HW1 2534   2.680   4.782   0.902
  826SOL    HW2 2535   2.658   4.876   0.785
  827SOL     OW 2536   1.593   0.283   0.261
  827SOL    HW1 2537   1.671   0.321   0.221
  827SOL    HW2 2538   1.532   0.271   0.187
  828SOL     OW 2539   0.867   1.771   0.254
  828SOL    HW1 2540   0.908   1.757   0.339
  828SOL    HW2 2541   0.851   1.866   0.251
  829SOL     OW 2542   1.657   4.204   0.060
  829SOL    HW1 2543   1.741   4.181   0.019
  829SOL    HW2 2544   1.677   4.212   0.153
  830SOL     OW 2545   3.219   1.005   4.897
  830SOL    HW1 2546   3.193   1.097   4.891
  830SOL    HW2 2547   3.216   0.974   4.806
  831SOL     OW 2548   2.047   3.128   1.053
  831SOL    HW1 2549   2.063   3.222   1.055
  831SOL    HW2 2550   1.992   3.111   1.130
  832SOL     OW 2551   2.470   1.074   2.858
  832SOL    HW1 2552   2.508   1.094   2.772
  832SOL    HW2 2553   2.402   1.009   2.839
  833SOL     OW 2554   2.846   4.495   0.074
  833SOL    HW1 2555   2.792   4.437   0.021
  833SOL    HW2 2556   2.907   4.437   0.118
  834SOL     OW 2557   3.887   4.144   4.858
  834SOL    HW1 2558   3.960   4.177   4.806
  834SOL    HW2 2559   3.864   4.061   4.818
  835SOL     OW 2560   0.117   1.762   4.519
  835SOL    HW1 2561   0.207   1.790   4.537
  835SOL    HW2 2562   0.069   1.783   4.599
  836SOL     OW 2563   1.465   1.908   3.209
  836SOL    HW1 2564   1.511   1.883   3.129
  836SOL    HW2 2565   1.373   1.892   3.189
  837SOL     OW 2566   4.530   1.045   3.087
  837SOL    HW1 2567   4.599   1.091   3.038
  837SOL    HW2 2568   4.461   1.111   3.098
  838SOL     OW 2569   2.963   2.701   0.484
  838SOL    HW1 2570   2.926   2.765   0.544
  838SOL    HW2 2571   2.929   2.724   0.398
  839SOL     OW 2572   3.251   1.500   0.368
  839SOL    HW1 2573   3.199   1.456   0.435
  839SOL    HW2 2574   3.291   1.428   0.319
  840SOL     OW 2575   2.761   0.913   2.812
  840SOL    HW1 2576   2.750   0.894   2.719
  840SOL    HW2 2577   2.672   0.930   2.844
  841SOL     OW 2578   3.949   0.563   1.100
  841SOL    HW1 2579   3.919   0.570   1.009
  841SOL    HW2 2580   4.041   0.541   1.093
  842SOL     OW 2581   4.316   3.167   4.572
  842SOL    HW1 2582   4.298   3.176   4.479
  842SOL    HW2 2583   4.410   3.148   4.577
  843SOL     OW 2584   1.748   2.443   1.250
  843SOL    HW1 2585   1.811   2.371   1.251
  843SOL    HW2 2586   1.667   2.403   1.217
  844SOL     OW 2587   4.784   4.772   3.510
  844SOL    HW1 2588   4.792   4.819   3.427
  844SOL    HW2 2589   4.870   4.781   3.551
  845SOL     OW 2590   3.173   2.603   1.277
  845SOL    HW1 2591   3.120   2.528   1.303
  845SOL    HW2 2592   3.232   2.618   1.351
  846SOL     OW 2593   2.328   1.463   3.701
  846SOL    HW1 2594   2.374   1.472   3.618
  846SOL    HW2 2595   2.327   1.368   3.717
  847SOL     OW 2596   2.277   4.333   1.994
  847SOL    HW1 2597   2.337   4.403   1.967
  847SOL    HW2 2598   2.279   4.270   1.922
  848SOL     OW 2599   0.284   2.643   2.399
  848SOL    HW1 2600   0.207   2.651   2.456
  848SOL    HW2 2601   0.284   2.724   2.348
  849SOL     OW 2602   4.728   3.887   1.025
  849SOL    HW1 2603   4.636   3.881   1.001
  849SOL    HW2 2604   4.775   3.869   0.944
  850SOL     OW 2605   1.849   4.717   2.356
  850SOL    HW1 2606   1.911   4.662   2.404
  850SOL    HW2 2607   1.813   4.660   2.289
  851SOL     OW 2608   0.769   2.532   3.533
  851SOL    HW1 2609   0.812   2.496   3.456
  851SOL    HW2 2610   0.813   2.489   3.607
  852SOL     OW 2611   2.727   1.821   1.738
  852SOL    HW1 2612   2.685   1.766   1.804
  852SOL    HW2 2613   2.661   1.885   1.714
  853SOL     OW 2614   4.433   3.406   1.540
  853SOL    HW1 2615   4.495   3.467   1.500
  853SOL    HW2 2616   4.396   3.455   1.614
  854SOL     OW 2617   4.440   1.687   3.599
  854SOL    HW1 2618   4.356   1.716   3.636
  854SOL    HW2 2619   4.446   1.595   3.623
  855SOL     OW 2620   0.406   1.047   1.518
  855SOL    HW1 2621   0.398   1.047   1.614
  855SOL    HW2 2622   0.444   0.961   1.497
  856SOL     OW 2623   1.215   1.250   0.100
  856SOL    HW1 2624   1.155   1.299   0.158
  856SOL    HW2 2625   1.178   1.262   0.013
  857SOL     OW 2626   2.565   1.266   0.585
  857SOL    HW1 2627   2.567   1.174   0.612
  857SOL    HW2 2628   2.657   1.289   0.573
  858SOL     OW 2629   0.541   2.724   2.593
  858SOL    HW1 2630   0.538   2.788   2.665
  858SOL    HW2 2631   0.452   2.721   2.559
  859SOL     OW 2632   3.471   0.572   4.274
  859SOL    HW1 2633   3.478   0.492   4.223
  859SOL    HW2 2634   3.397   0.619   4.235
  860SOL     OW 2635   2.252   0.213   3.131
  860SOL    HW1 2636   2.329   0.208   3.074
  860SOL    HW2 2637   2.286   0.242   3.216
  861SOL     OW 2638   0.532   2.106   0.834
  861SOL    HW1 2639   0.553   2.069   0.920
  861SOL    HW2 2640   0.503   2.032   0.782
  862SOL     OW 2641   1.361   0.398   0.039
  862SOL    HW1 2642   1.390   0.307   0.045
  862SOL    HW2 2643   1.266   0.394   0.054
  863SOL     OW 2644   1.675   1.946   0.491
  863SOL    HW1 2645   1.691   1.866   0.441
  863SOL    HW2 2646   1.714   2.015   0.438
  864SOL     OW 2647   3.210   4.660   2.514
  864SOL    HW1 2648   3.145   4.593   2.490
  864SOL    HW2 2649   3.159   4.730   2.553
  865SOL     OW 2650   4.109   2.310   3.033
  865SOL    HW1 2651   4.117   2.309   2.938
  865SOL    HW2 2652   4.181   2.366   3.063
  866SOL     OW 2653   3.907   2.835   1.682
  866SOL    HW1 2654   3.975   2.892   1.648
  866SOL    HW2 2655   3.897   2.861   1.773
  867SOL     OW 2656   4.888   0.529   2.732
  867SOL    HW1 2657   4.842   0.471   2.793
  867SOL    HW2 2658   4.829   0.603   2.721
  868SOL     OW 2659   0.823   4.604   1.187
  868SOL    HW1 2660   0.841   4.605   1.093
  868SOL    HW2 2661   0.811   4.696   1.210
  869SOL     OW 2662   2.118   3.344   4.379
  869SOL    HW1 2663   2.094   3.300   4.460
  869SOL    HW2 2664   2.156   3.427   4.406
  870SOL     OW 2665   1.672   4.323   2.867
  870SOL    HW1 2666   1.631   4.238   2.849
  870SOL    HW2 2667   1.705   4.351   2.782
  871SOL     OW 2668   0.973   2.532   3.280
  871SOL    HW1 2669   1.060   2.554   3.315
  871SOL    HW2 2670   0.978   2.439   3.262
  872SOL     OW 2671   2.487   0.648   1.458
  872SOL    HW1 2672   2.413   0.679   1.406
  872SOL    HW2 2673   2.494   0.712   1.529
  873SOL     OW 2674   2.685   3.512   2.927
  873SOL    HW1 2675   2.693   3.422   2.960
  873SOL    HW2 2676   2.637   3.559   2.996
  874SOL     OW 2677   0.738   0.390   4.636
  874SOL    HW1 2678   0.708   0.299   4.634
  874SOL    HW2 2679   0.810   0.392   4.572
  875SOL     OW 2680   3.551   4.559   0.825
  875SOL    HW1 2681   3.549   4.477   0.776
  875SOL    HW2 2682   3.607   4.617   0.772
  876SOL     OW 2683   0.409   2.615   1.297
  876SOL    HW1 2684   0.330   2.660   1.268
  876SOL    HW2 2685   0.400   2.526   1.263
  877SOL     OW 2686   4.943   0.697   0.264
  877SOL    HW1 2687   0.047   0.705   0.316
  877SOL    HW2 2688   4.904   0.615   0.294
  878SOL     OW 2689   0.282   3.536   1.167
  878SOL    HW1 2690   0.205   3.488   1.199
  878SOL    HW2 2691   0.357   3.491   1.206
  879SOL     OW 2692   4.361   1.603   4.852
  879SOL    HW1 2693   4.316   1.624   4.771
  879SOL    HW2 2694   4.375   1.508   4.847
  880SOL     OW 2695   0.042   4.551   2.328
  880SOL    HW1 2696   0.002   4.637   2.343
  880SOL    HW2 2697   4.975   4.518   2.249
  881SOL     OW 2698   4.712   1.348   0.023
  881SOL    HW1 2699   4.769   1.305   0.087
  881SOL    HW2 2700   4.627   1.352   0.066
  882SOL     OW 2701   2.942   1.432   1.546
  882SOL    HW1 2702   2.901   1.518   1.554
  882SOL    HW2 2703   2.988   1.420   1.629
  883SOL     OW 2704   1.051   0.304   3.423
  883SOL    HW1 2705   1.129   0.357   3.434
  883SOL    HW2 2706   1.079   0.229   3.371
  884SOL     OW 2707   1.352   2.644   0.432
  884SOL    HW1 2708   1.317   2.555   0.427
  884SOL    HW2 2709   1.304   2.685   0.504
  885SOL     OW 2710   3.590   2.125   0.492
  885SOL    HW1 2711   3.634   2.043   0.512
  885SOL    HW2 2712   3.570   2.120   0.399
  886SOL     OW 2713   1.268   2.313   3.112
  886SOL    HW1 2714   1.231   2.366   3.041
  886SOL    HW2 2715   1.269   2.224   3.077
  887SOL     OW 2716   2.369   2.842   0.898
  887SOL    HW1 2717   2.463   2.831   0.888
  887SOL    HW2 2718   2.358   2.931   0.930
  888SOL     OW 2719   3.969   2.105   1.371
  888SOL    HW1 2720   3.963   2.131   1.279
  888SOL    HW2 2721   3.945   2.013   1.371
  889SOL     OW 2722   3.363   2.284   1.116
  889SOL    HW1 2723   3.280   2.238   1.104
  889SOL    HW2 2724   3.359   2.318   1.206
  890SOL     OW 2725   4.424   2.698   3.069
  890SOL    HW1 2726   4.499   2.644   3.044
  890SOL    HW2 2727   4.463   2.771   3.118
  891SOL     OW 2728   4.580   3.356   4.910
  891SOL    HW1 2729   4.493   3.361   4.871
  891SOL    HW2 2730   4.580   3.423   0.002
  892SOL     OW 2731   3.314   1.712   4.637
  892SOL    HW1 2732   3.372   1.684   4.708
  892SOL    HW2 2733   3.277   1.795   4.668
  893SOL     OW 2734   2.197   0.922   4.554
  893SOL    HW1 2735   2.150   0.998   4.589
  893SOL    HW2 2736   2.277   0.917   4.607
  894SOL     OW 2737   0.573   3.372   3.670
  894SOL    HW1 2738   0.647   3.362   3.611
  894SOL    HW2 2739   0.504   3.317   3.633
  895SOL     OW 2740   1.627   0.285   0.530
  895SOL    HW1 2741   1.716   0.263   0.557
  895SOL    HW2 2742   1.615   0.241   0.446
  896SOL     OW 2743   3.085   3.217   1.294
  896SOL    HW1 2744   3.165   3.260   1.326
  896SOL    HW2 2745   3.115   3.160   1.223
  897SOL     OW 2746   4.941   2.294   1.233
  897SOL    HW1 2747   4.900   2.370   1.274
  897SOL    HW2 2748   4.966   2.326   1.146
  898SOL     OW 2749   4.784   3.317   0.989
  898SOL    HW1 2750   4.818   3.344   1.075
  898SOL    HW2 2751   4.721   3.248   1.009
  899SOL     OW 2752   1.216   0.271   4.775
  899SOL    HW1 2753   1.228   0.365   4.781
  899SOL    HW2 2754   1.281   0.242   4.711
  900SOL     OW 2755   1.575   4.368   4.680
  900SOL    HW1 2756   1.519   4.444   4.696
  900SOL    HW2 2757   1.523   4.311   4.624
  901SOL     OW 2758   1.150   3.737   4.459
  901SOL    HW1 2759   1.070   3.776   4.425
  901SOL    HW2 2760   1.156   3.769   4.549
  902SOL     OW 2761   3.039   1.715   2.400
  902SOL    HW1 2762   3.123   1.680   2.370
  902SOL    HW2 2763   3.062   1.788   2.457
  903SOL     OW 2764   4.127   1.931   0.583
  903SOL    HW1 2765   4.163   1.965   0.665
  903SOL    HW2 2766   4.085   1.848   0.607
  904SOL     OW 2767   4.072   0.732   2.021
  904SOL    HW1 2768   4.108   0.820   2.033
  904SOL    HW2 2769   4.022   0.715   2.101
  905SOL     OW 2770   3.377   0.322   4.610
  905SOL    HW1 2771   3.458   0.372   4.603
  905SOL    HW2 2772   3.349   0.334   4.700
  906SOL     OW 2773   1.184   2.359   4.112
  906SOL    HW1 2774   1.147   2.433   4.063
  906SOL    HW2 2775   1.231   2.400   4.185
  907SOL     OW 2776   3.972   1.583   1.843
  907SOL    HW1 2777   3.928   1.665   1.821
  907SOL    HW2 2778   4.063   1.609   1.859
  908SOL     OW 2779   1.955   0.716   3.963
  908SOL    HW1 2780   2.013   0.746   4.033
  908SOL    HW2 2781   1.946   0.622   3.977
  909SOL     OW 2782   4.392   4.643   3.290
  909SOL    HW1 2783   4.417   4.582   3.360
  909SOL    HW2 2784   4.440   4.723   3.309
  910SOL     OW 2785   0.749   0.771   0.870
  910SOL    HW1 2786   0.822   0.776   0.932
  910SOL    HW2 2787   0.680   0.825   0.909
  911SOL     OW 2788   2.550   2.060   1.643
  911SOL    HW1 2789   2.455   2.050   1.631
  911SOL    HW2 2790   2.568   2.148   1.611
  912SOL     OW 2791   3.273   0.605   1.814
  912SOL    HW1 2792   3.248   0.574   1.727
  912SOL    HW2 2793   3.197   0.585   1.869
  913SOL     OW 2794   0.006   3.736   3.148
  913SOL    HW1 2795   4.926   3.659   3.133
  913SOL    HW2 2796   4.922   3.802   3.183
  914SOL     OW 2797   4.963   4.037   0.822
  914SOL    HW1 2798   4.952   4.053   0.729
  914SOL    HW2 2799   0.063   3.980   0.829
  915SOL     OW 2800   2.491   0.831   2.201
  915SOL    HW1 2801   2.538   0.761   2.156
  915SOL    HW2 2802   2.547   0.908   2.191
  916SOL     OW 2803   3.492   1.147   3.745
  916SOL    HW1 2804   3.455   1.059   3.743
  916SOL    HW2 2805   3.540   1.155   3.663
  917SOL     OW 2806   1.226   4.161   1.546
  917SOL    HW1 2807   1.285   4.192   1.615
  917SOL    HW2 2808   1.216   4.068   1.564
  918SOL     OW 2809   2.962   1.866   2.703
  918SOL    HW1 2810   2.882   1.866   2.650
  918SOL    HW2 2811   2.960   1.783   2.750
  919SOL     OW 2812   3.767   2.758   2.859
  919SOL    HW1 2813   3.856   2.770   2.824
  919SOL    HW2 2814   3.761   2.663   2.875
  920SOL     OW 2815   2.567   2.124   2.529
  920SOL    HW1 2816   2.627   2.189   2.567
  920SOL    HW2 2817   2.620   2.044   2.523
  921SOL     OW 2818   2.245   2.652   4.220
  921SOL    HW1 2819   2.265   2.742   4.246
  921SOL    HW2 2820   2.199   2.615   4.295
  922SOL     OW 2821   2.944   4.669   0.644
  922SOL    HW1 2822   2.945   4.701   0.554
  922SOL    HW2 2823   2.861   4.700   0.680
  923SOL     OW 2824   2.631   0.946   3.337
  923SOL    HW1 2825   2.722   0.928   3.315
  923SOL    HW2 2826   2.583   0.931   3.255
  924SOL     OW 2827   3.324   0.396   3.535
  924SOL    HW1 2828   3.375   0.368   3.612
  924SOL    HW2 2829   3.249   0.337   3.533
  925SOL     OW 2830   0.649   1.133   3.348
  925SOL    HW1 2831   0.606   1.205   3.303
  925SOL    HW2 2832   0.583   1.065   3.354
  926SOL     OW 2833   1.968   1.815   0.176
  926SOL    HW1 2834   1.879   1.844   0.158
  926SOL    HW2 2835   1.959   1.757   0.252
  927SOL     OW 2836   1.221   2.744   2.498
  927SOL    HW1 2837   1.141   2.795   2.481
  927SOL    HW2 2838   1.215   2.720   2.590
  928SOL     OW 2839   2.941   3.839   0.331
  928SOL    HW1 2840   2.933   3.882   0.416
  928SOL    HW2 2841   3.031   3.808   0.327
  929SOL     OW 2842   4.641   3.621   4.067
  929SOL    HW1 2843   4.717   3.676   4.046
  929SOL    HW2 2844   4.589   3.674   4.127
  930SOL     OW 2845   0.547   1.899   2.954
  930SOL    HW1 2846   0.514   1.977   2.910
  930SOL    HW2 2847   0.554   1.833   2.884
  931SOL     OW 2848   1.346   1.523   3.738
  931SOL    HW1 2849   1.437   1.502   3.718
  931SOL    HW2 2850   1.347   1.615   3.764
  932SOL     OW 2851   3.166   3.984   0.964
  932SOL    HW1 2852   3.199   3.962   1.051
  932SOL    HW2 2853   3.183   4.077   0.954
  933SOL     OW 2854   0.263   1.412   0.994
  933SOL    HW1 2855   0.245   1.391   1.086
  933SOL    HW2 2856   0.357   1.398   0.984
  934SOL     OW 2857   0.721   1.194   2.133
  934SOL    HW1 2858   0.674   1.114   2.114
  934SOL    HW2 2859   0.814   1.170   2.127
  935SOL     OW 2860   1.777   4.416   2.625
  935SOL    HW1 2861   1.829   4.490   2.658
  935SOL    HW2 2862   1.828   4.383   2.550
  936SOL     OW 2863   0.322   1.739   1.507
  936SOL    HW1 2864   0.371   1.813   1.470
  936SOL    HW2 2865   0.256   1.779   1.564
  937SOL     OW 2866   3.091   1.594   3.765
  937SOL    HW1 2867   3.003   1.569   3.738
  937SOL    HW2 2868   3.141   1.598   3.684
  938SOL     OW 2869   2.285   2.522   0.569
  938SOL    HW1 2870   2.270   2.571   0.650
  938SOL    HW2 2871   2.199   2.484   0.548
  939SOL     OW 2872   4.598   0.630   3.783
  939SOL    HW1 2873   4.544   0.553   3.765
  939SOL    HW2 2874   4.540   0.690   3.828
  940SOL     OW 2875   2.116   0.524   2.161
  940SOL    HW1 2876   2.064   0.444   2.160
  940SOL    HW2 2877   2.160   0.525   2.076
  941SOL     OW 2878   2.693   2.209   2.187
  941SOL    HW1 2879   2.601   2.196   2.162
  941SOL    HW2 2880   2.734   2.245   2.108
  942SOL     OW 2881   3.105   3.479   3.868
  942SOL    HW1 2882   3.159   3.471   3.947
  942SOL    HW2 2883   3.130   3.563   3.830
  943SOL     OW 2884   0.169   4.070   1.232
  943SOL    HW1 2885   0.190   4.109   1.317
  943SOL    HW2 2886   0.075   4.054   1.236
  944SOL     OW 2887   1.321   4.601   3.675
  944SOL    HW1 2888   1.267   4.552   3.737
  944SOL    HW2 2889   1.258   4.640   3.614
  945SOL     OW 2890   0.493   3.874   3.674
  945SOL    HW1 2891   0.584   3.893   3.697
  945SOL    HW2 2892   0.495   3.784   3.640
  946SOL     OW 2893   0.864   2.443   1.424
  946SOL    HW1 2894   0.924   2.515   1.446
  946SOL    HW2 2895   0.920   2.365   1.421
  947SOL     OW 2896   1.274   1.316   2.342
  947SOL    HW1 2897   1.341   1.254   2.371
  947SOL    HW2 2898   1.195   1.288   2.388
  948SOL     OW 2899   3.872   0.821   1.254
  948SOL    HW1 2900   3.895   0.738   1.213
  948SOL    HW2 2901   3.952   0.848   1.300
  949SOL     OW 2902   4.003   1.744   1.570
  949SOL    HW1 2903   3.918   1.738   1.615
  949SOL    HW2 2904   3.983   1.790   1.488
  950SOL     OW 2905   4.816   0.383   0.101
  950SOL    HW1 2906   4.891   0.370   0.044
  950SOL    HW2 2907   4.758   0.309   0.082
  951SOL     OW 2908   1.384   2.863   1.217
  951SOL    HW1 2909   1.354   2.949   1.187
  951SOL    HW2 2910   1.412   2.818   1.137
  952SOL     OW 2911   2.281   2.410   2.602
  952SOL    HW1 2912   2.294   2.354   2.526
  952SOL    HW2 2913   2.257   2.495   2.565
  953SOL     OW 2914   0.231   3.467   2.393
  953SOL    HW1 2915   0.228   3.415   2.473
  953SOL    HW2 2916   0.263   3.552   2.421
  954SOL     OW 2917   1.818   4.328   4.107
  954SOL    HW1 2918   1.787   4.288   4.189
  954SOL    HW2 2919   1.888   4.271   4.077
  955SOL     OW 2920   3.295   4.204   4.744
  955SOL    HW1 2921   3.214   4.197   4.794
  955SOL    HW2 2922   3.364   4.186   4.807
  956SOL     OW 2923   2.419   4.251   4.412
  956SOL    HW1 2924   2.324   4.267   4.407
  956SOL    HW2 2925   2.457   4.339   4.419
  957SOL     OW 2926   3.461   4.799   2.461
  957SOL    HW1 2927   3.432   4.708   2.466
  957SOL    HW2 2928   3.479   4.813   2.368
  958SOL     OW 2929   4.701   1.521   3.539
  958SOL    HW1 2930   4.652   1.470   3.604
  958SOL    HW2 2931   4.636   1.581   3.502
  959SOL     OW 2932   1.168   3.003   3.997
  959SOL    HW1 2933   1.209   3.087   3.979
  959SOL    HW2 2934   1.130   3.012   4.085
  960SOL     OW 2935   1.600   3.768   1.225
  960SOL    HW1 2936   1.638   3.848   1.190
  960SOL    HW2 2937   1.651   3.698   1.184
  961SOL     OW 2938   2.735   1.062   4.017
  961SOL    HW1 2939   2.703   1.152   4.012
  961SOL    HW2 2940   2.830   1.069   4.006
  962SOL     OW 2941   2.912   4.330   2.173
  962SOL    HW1 2942   2.945   4.244   2.199
  962SOL    HW2 2943   2.921   4.331   2.078
  963SOL     OW 2944   1.122   3.473   0.387
  963SOL    HW1 2945   1.180   3.400   0.364
  963SOL    HW2 2946   1.132   3.534   0.314
  964SOL     OW 2947   2.222   0.535   3.132
  964SOL    HW1 2948   2.193   0.626   3.133
  964SOL    HW2 2949   2.143   0.485   3.156
  965SOL     OW 2950   3.768   1.645   4.764
  965SOL    HW1 2951   3.684   1.687   4.785
  965SOL    HW2 2952   3.747   1.582   4.695
  966SOL     OW 2953   1.210   4.131   4.568
  966SOL    HW1 2954   1.132   4.183   4.589
  966SOL    HW2 2955   1.188   4.042   4.597
  967SOL     OW 2956   3.943   1.499   3.586
  967SOL    HW1 2957   4.013   1.481   3.649
  967SOL    HW2 2958   3.874   1.437   3.608
  968SOL     OW 2959   1.234   3.037   0.108
  968SOL    HW1 2960   1.247   3.129   0.133
  968SOL    HW2 2961   1.297   2.989   0.161
  969SOL     OW 2962   4.259   2.877   2.936
  969SOL    HW1 2963   4.326   2.812   2.959
  969SOL    HW2 2964   4.282   2.905   2.847
  970SOL     OW 2965   2.459   3.477   3.196
  970SOL    HW1 2966   2.474   3.469   3.290
  970SOL    HW2 2967   2.481   3.567   3.174
  971SOL     OW 2968   0.235   4.001   2.229
  971SOL    HW1 2969   0.189   4.069   2.179
  971SOL    HW2 2970   0.170   3.932   2.240
  972SOL     OW 2971   2.450   0.790   2.879
  972SOL    HW1 2972   2.413   0.767   2.794
  972SOL    HW2 2973   2.456   0.707   2.926
  973SOL     OW 2974   1.517   1.241   2.073
  973SOL    HW1 2975   1.540   1.334   2.071
  973SOL    HW2 2976   1.573   1.204   2.142
  974SOL     OW 2977   1.785   3.248   2.538
  974SOL    HW1 2978   1.825   3.325   2.579
  974SOL    HW2 2979   1.738   3.204   2.609
  975SOL     OW 2980   4.444   0.444   3.139
  975SOL    HW1 2981   4.513   0.508   3.121
  975SOL    HW2 2982   4.477   0.394   3.214
  976SOL     OW 2983   2.140   1.368   2.340
  976SOL    HW1 2984   2.162   1.357   2.248
  976SOL    HW2 2985   2.098   1.455   2.345
  977SOL     OW 2986   3.104   0.184   1.631
  977SOL    HW1 2987   3.140   0.247   1.569
  977SOL    HW2 2988   3.009   0.187   1.616
  978SOL     OW 2989   1.819   3.497   1.952
  978SOL    HW1 2990   1.871   3.535   2.024
  978SOL    HW2 2991   1.759   3.437   1.996
  979SOL     OW 2992   4.626   1.147   3.333
  979SOL    HW1 2993   4.633   1.066   3.383
  979SOL    HW2 2994   4.613   1.119   3.242
  980SOL     OW 2995   0.906   0.562   3.851
  980SOL    HW1 2996   0.819   0.594   3.827
  980SOL    HW2 2997   0.900   0.467   3.841
  981SOL     OW 2998   4.210   1.690   2.770
  981SOL    HW1 2999   4.303   1.669   2.765
  981SOL    HW2 3000   4.203   1.775   2.727
  982SOL     OW 3001   4.173   3.402   1.917
  982SOL    HW1 3002   4.210   3.441   1.996
  982SOL    HW2 3003   4.241   3.344   1.885
  983SOL     OW 3004   2.398   1.705   3.241
  983SOL    HW1 3005   2.456   1.768   3.199
  983SOL    HW2 3006   2.382   1.639   3.173
  984SOL     OW 3007   4.380   3.014   3.344
  984SOL    HW1 3008   4.305   2.955   3.338
  984SOL    HW2 3009   4.432   2.980   3.417
  985SOL     OW 3010   2.024   4.934   3.939
  985SOL    HW1 3011   2.048   4.948   4.031
  985SOL    HW2 3012   1.976   4.851   3.939
  986SOL     OW 3013   2.028   0.414   2.661
  986SOL    HW1 3014   2.051   0.444   2.573
  986SOL    HW2 3015   2.095   0.452   2.717
  987SOL     OW 3016   0.826   3.527   3.280
  987SOL    HW1 3017   0.876   3.463   3.229
  987SOL    HW2 3018   0.741   3.532   3.237
  988SOL     OW 3019   3.549   0.052   2.952
  988SOL    HW1 3020   3.528   0.095   3.035
  988SOL    HW2 3021   3.473   4.972   2.935
  989SOL     OW 3022   2.514   4.362   3.311
  989SOL    HW1 3023   2.581   4.351   3.379
  989SOL    HW2 3024   2.498   4.456   3.308
  990SOL     OW 3025   4.226   3.807   0.562
  990SOL    HW1 3026   4.146   3.814   0.615
  990SOL    HW2 3027   4.195   3.770   0.479
  991SOL     OW 3028   4.667   2.558   3.025
  991SOL    HW1 3029   4.756   2.545   2.992
  991SOL    HW2 3030   4.676   2.553   3.121
  992SOL     OW 3031   3.218   4.479   1.745
  992SOL    HW1 3032   3.185   4.394   1.715
  992SOL    HW2 3033   3.233   4.468   1.839
  993SOL     OW 3034   0.314   1.561   4.881
  993SOL    HW1 3035   0.382   1.553   4.814
  993SOL    HW2 3036   0.238   1.516   4.844
  994SOL     OW 3037   0.292   3.198   0.619
  994SOL    HW1 3038   0.238   3.204   0.540
  994SOL    HW2 3039   0.343   3.118   0.607
  995SOL     OW 3040   3.745   4.820   4.686
  995SOL    HW1 3041   3.825   4.787   4.644
  995SOL    HW2 3042   3.769   4.828   4.779
  996SOL     OW 3043   1.967   4.368   0.237
  996SOL    HW1 3044   1.880   4.328   0.246
  996SOL    HW2 3045   1.958   4.453   0.279
  997SOL     OW 3046   4.498   0.534   0.746
  997SOL    HW1 3047   4.569   0.477   0.717
  997SOL    HW2 3048   4.478   0.588   0.670
  998SOL     OW 3049   3.671   3.106   0.385
  998SOL    HW1 3050   3.748   3.050   0.374
  998SOL    HW2 3051   3.596   3.046   0.382
  999SOL     OW 3052   0.576   4.804   3.188
  999SOL    HW1 3053   0.596   4.711   3.172
  999SOL    HW2 3054   0.579   4.813   3.283
 1000SOL     OW 3055   3.794   1.687   1.068
 1000SOL    HW1 3056   3.710   1.669   1.111
 1000SOL    HW2 3057   3.772   1.747   0.996
 1001SOL     OW 3058   1.749   0.403   1.383
 1001SOL    HW1 3059   1.671   0.396   1.329
 1001SOL    HW2 3060   1.772   0.313   1.405
 1002SOL     OW 3061   1.843   3.466   2.703
 1002SOL    HW1 3062   1.923   3.462   2.652
 1002SOL    HW2 3063   1.839   3.557   2.735
 1003SOL     OW 3064   3.181   3.213   2.811
 1003SOL    HW1 3065   3.236   3.241   2.737
 1003SOL    HW2 3066   3.142   3.294   2.843
 1004SOL     OW 3067   2.239   1.553   4.519
 1004SOL    HW1 3068   2.307   1.488   4.503
 1004SOL    HW2 3069   2.254   1.621   4.453
 1005SOL     OW 3070   2.112   4.076   3.232
 1005SOL    HW1 3071   2.151   4.034   3.309
 1005SOL    HW2 3072   2.167   4.153   3.216
 1006SOL     OW 3073   4.143   0.934   1.336
 1006SOL    HW1 3074   4.175   1.015   1.376
 1006SOL    HW2 3075   4.218   0.874   1.340
 1007SOL     OW 3076   3.810   3.740   2.091
 1007SOL    HW1 3077   3.715   3.739   2.086
 1007SOL    HW2 3078   3.833   3.832   2.102
 1008SOL     OW 3079   4.236   1.261   4.282
 1008SOL    HW1 3080   4.293   1.337   4.292
 1008SOL    HW2 3081   4.295   1.186   4.283
 1009SOL     OW 3082   3.050   2.229   0.689
 1009SOL    HW1 3083   3.040   2.156   0.628
 1009SOL    HW2 3084   3.021   2.306   0.640
 1010SOL     OW 3085   3.670   3.245   1.866
 1010SOL    HW1 3086   3.590   3.264   1.816
 1010SOL    HW2 3087   3.737   3.231   1.799
 1011SOL     OW 3088   2.240   1.229   2.581
 1011SOL    HW1 3089   2.214   1.265   2.496
 1011SOL    HW2 3090   2.335   1.230   2.579
 1012SOL     OW 3091   4.422   4.799   0.690
 1012SOL    HW1 3092   4.413   4.705   0.702
 1012SOL    HW2 3093   4.459   4.809   0.602
 1013SOL     OW 3094   2.832   2.209   3.125
 1013SOL    HW1 3095   2.810   2.116   3.119
 1013SOL    HW2 3096   2.927   2.209   3.141
 1014SOL     OW 3097   3.367   3.279   3.588
 1014SOL    HW1 3098   3.357   3.191   3.624
 1014SOL    HW2 3099   3.283   3.297   3.544
 1015SOL     OW 3100   2.992   3.606   1.500
 1015SOL    HW1 3101   2.908   3.559   1.503
 1015SOL    HW2 3102   2.975   3.688   1.546
 1016SOL     OW 3103   1.052   0.402   0.359
 1016SOL    HW1 3104   1.113   0.442   0.421
 1016SOL    HW2 3105   1.079   0.310   0.355
 1017SOL     OW 3106   1.642   4.046   1.122
 1017SOL    HW1 3107   1.706   4.096   1.071
 1017SOL    HW2 3108   1.562   4.099   1.118
 1018SOL     OW 3109   3.021   4.619   1.994
 1018SOL    HW1 3110   3.047   4.641   2.083
 1018SOL    HW2 3111   2.996   4.527   1.998
 1019SOL     OW 3112   4.505   1.168   1.240
 1019SOL    HW1 3113   4.516   1.073   1.239
 1019SOL    HW2 3114   4.526   1.194   1.330
 1020SOL     OW 3115   3.103   2.568   3.006
 1020SOL    HW1 3116   3.109   2.636   3.073
 1020SOL    HW2 3117   3.180   2.581   2.951
 1021SOL     OW 3118   2.347   4.169   4.865
 1021SOL    HW1 3119   2.374   4.259   4.849
 1021SOL    HW2 3120   2.411   4.136   4.928
 1022SOL     OW 3121   0.497   3.983   0.980
 1022SOL    HW1 3122   0.467   4.074   0.977
 1022SOL    HW2 3123   0.421   3.934   1.012
 1023SOL     OW 3124   0.908   2.369   0.460
 1023SOL    HW1 3125   0.984   2.384   0.515
 1023SOL    HW2 3126   0.834   2.364   0.521
 1024SOL     OW 3127   3.320   4.363   4.280
 1024SOL    HW1 3128   3.282   4.341   4.365
 1024SOL    HW2 3129   3.415   4.358   4.294
 1025SOL     OW 3130   0.965   2.762   1.540
 1025SOL    HW1 3131   1.032   2.790   1.478
 1025SOL    HW2 3132   0.927   2.844   1.573
 1026SOL     OW 3133   2.503   3.632   0.853
 1026SOL    HW1 3134   2.467   3.643   0.765
 1026SOL    HW2 3135   2.434   3.664   0.911
 1027SOL     OW 3136   1.285   4.376   2.128
 1027SOL    HW1 3137   1.347   4.411   2.064
 1027SOL    HW2 3138   1.203   4.421   2.108
 1028SOL     OW 3139   3.616   0.483   1.811
 1028SOL    HW1 3140   3.711   0.491   1.809
 1028SOL    HW2 3141   3.594   0.439   1.729
 1029SOL     OW 3142   3.926   4.101   0.917
 1029SOL    HW1 3143   4.020   4.105   0.898
 1029SOL    HW2 3144   3.903   4.189   0.945
 1030SOL     OW 3145   1.751   2.752   1.217
 1030SOL    HW1 3146   1.736   2.665   1.252
 1030SOL    HW2 3147   1.712   2.811   1.282
 1031SOL     OW 3148   1.089   4.916   3.662
 1031SOL    HW1 3149   1.082   4.863   3.742
 1031SOL    HW2 3150   1.159   0.003   3.681
 1032SOL     OW 3151   1.282   2.576   1.696
 1032SOL    HW1 3152   1.271   2.518   1.621
 1032SOL    HW2 3153   1.268   2.664   1.661
 1033SOL     OW 3154   4.838   1.758   2.775
 1033SOL    HW1 3155   4.895   1.830   2.804
 1033SOL    HW2 3156   4.749   1.793   2.781
 1034SOL     OW 3157   0.695   0.709   4.349
 1034SOL    HW1 3158   0.766   0.662   4.305
 1034SOL    HW2 3159   0.621   0.701   4.289
 1035SOL     OW 3160   3.834   4.965   0.823
 1035SOL    HW1 3161   3.807   4.947   0.913
 1035SOL    HW2 3162   3.876   0.075   0.828
 1036SOL     OW 3163   3.581   2.953   4.177
 1036SOL    HW1 3164   3.614   3.043   4.171
 1036SOL    HW2 3165   3.527   2.953   4.256
 1037SOL     OW 3166   2.047   0.031   3.038
 1037SOL    HW1 3167   1.974   0.076   3.081
 1037SOL    HW2 3168   2.122   0.090   3.050
 1038SOL     OW 3169   4.554   2.408   1.262
 1038SOL    HW1 3170   4.501   2.484   1.238
 1038SOL    HW2 3171   4.506   2.333   1.226
 1039SOL     OW 3172   1.956   4.131   2.803
 1039SOL    HW1 3173   1.955   4.214   2.850
 1039SOL    HW2 3174   1.956   4.064   2.871
 1040SOL     OW 3175   2.663   1.022   2.082
 1040SOL    HW1 3176   2.733   1.087   2.091
 1040SOL    HW2 3177   2.700   0.954   2.025
 1041SOL     OW 3178   2.796   1.082   1.194
 1041SOL    HW1 3179   2.755   1.017   1.251
 1041SOL    HW2 3180   2.774   1.166   1.233
 1042SOL     OW 3181   2.426   1.925   2.931
 1042SOL    HW1 3182   2.458   1.953   2.845
 1042SOL    HW2 3183   2.500   1.879   2.970
 1043SOL     OW 3184   4.462   1.930   4.181
 1043SOL    HW1 3185   4.463   1.911   4.274
 1043SOL    HW2 3186   4.548   1.970   4.164
 1044SOL     OW 3187   2.702   1.950   1.455
 1044SOL    HW1 3188   2.646   1.996   1.517
 1044SOL    HW2 3189   2.707   2.008   1.379
 1045SOL     OW 3190   1.073   1.169   2.539
 1045SOL    HW1 3191   1.013   1.123   2.480
 1045SOL    HW2 3192   1.116   1.099   2.589
 1046SOL     OW 3193   2.905   4.321   1.906
 1046SOL    HW1 3194   2.849   4.365   1.842
 1046SOL    HW2 3195   2.935   4.242   1.861
 1047SOL     OW 3196   3.562   2.526   4.811
 1047SOL    HW1 3197   3.653   2.533   4.782
 1047SOL    HW2 3198   3.520   2.606   4.781
 1048SOL     OW 3199   2.226   3.222   1.564
 1048SOL    HW1 3200   2.131   3.217   1.561
 1048SOL    HW2 3201   2.249   3.183   1.648
 1049SOL     OW 3202   1.470   2.141   2.014
 1049SOL    HW1 3203   1.524   2.196   2.070
 1049SOL    HW2 3204   1.452   2.195   1.937
 1050SOL     OW 3205   4.186   3.385   0.880
 1050SOL    HW1 3206   4.176   3.292   0.897
 1050SOL    HW2 3207   4.129   3.402   0.805
 1051SOL     OW 3208   3.422   2.057   4.707
 1051SOL    HW1 3209   3.410   2.044   4.613
 1051SOL    HW2 3210   3.335   2.039   4.745
 1052SOL     OW 3211   2.229   0.919   2.299
 1052SOL    HW1 3212   2.198   0.941   2.211
 1052SOL    HW2 3213   2.324   0.920   2.292
 1053SOL     OW 3214   4.010   2.280   2.784
 1053SOL    HW1 3215   4.065   2.274   2.706
 1053SOL    HW2 3216   3.920   2.276   2.751
 1054SOL     OW 3217   1.552   0.654   1.194
 1054SOL    HW1 3218   1.553   0.649   1.289
 1054SOL    HW2 3219   1.460   0.663   1.171
 1055SOL     OW 3220   2.396   1.040   3.831
 1055SOL    HW1 3221   2.431   1.032   3.742
 1055SOL    HW2 3222   2.303   1.058   3.819
 1056SOL     OW 3223   4.971   3.007   2.917
 1056SOL    HW1 3224   0.019   3.001   3.010
 1056SOL    HW2 3225   4.878   3.033   2.919
 1057SOL     OW 3226   1.234   0.360   3.981
 1057SOL    HW1 3227   1.208   0.308   3.905
 1057SOL    HW2 3228   1.186   0.442   3.972
 1058SOL     OW 3229   1.502   3.295   1.757
 1058SOL    HW1 3230   1.413   3.311   1.790
 1058SOL    HW2 3231   1.490   3.228   1.690
 1059SOL     OW 3232   3.849   2.706   3.198
 1059SOL    HW1 3233   3.864   2.641   3.129
 1059SOL    HW2 3234   3.781   2.668   3.253
 1060SOL     OW 3235   3.828   2.320   1.465
 1060SOL    HW1 3236   3.846   2.311   1.559
 1060SOL    HW2 3237   3.851   2.235   1.428
 1061SOL     OW 3238   4.529   3.005   0.344
 1061SOL    HW1 3239   4.545   3.027   0.436
 1061SOL    HW2 3240   4.497   3.087   0.305
 1062SOL     OW 3241   0.325   4.828   3.558
 1062SOL    HW1 3242   0.375   4.808   3.637
 1062SOL    HW2 3243   0.385   4.877   3.503
 1063SOL     OW 3244   4.047   2.484   1.444
 1063SOL    HW1 3245   3.968   2.430   1.447
 1063SOL    HW2 3246   4.095   2.459   1.523
 1064SOL     OW 3247   4.560   2.587   0.028
 1064SOL    HW1 3248   4.611   2.615   0.104
 1064SOL    HW2 3249   4.477   2.634   0.036
 1065SOL     OW 3250   1.905   4.489   1.568
 1065SOL    HW1 3251   1.822   4.524   1.534
 1065SOL    HW2 3252   1.946   4.448   1.492
 1066SOL     OW 3253   4.747   2.574   4.315
 1066SOL    HW1 3254   4.717   2.665   4.320
 1066SOL    HW2 3255   4.716   2.542   4.230
 1067SOL     OW 3256   1.423   1.505   4.052
 1067SOL    HW1 3257   1.398   1.581   4.000
 1067SOL    HW2 3258   1.385   1.431   4.005
 1068SOL     OW 3259   3.343   4.862   0.149
 1068SOL    HW1 3260   3.284   4.924   0.192
 1068SOL    HW2 3261   3.289   4.819   0.083
 1069SOL     OW 3262   4.016   4.908   2.530
 1069SOL    HW1 3263   3.936   4.859   2.552
 1069SOL    HW2 3264   4.030   4.888   2.437
 1070SOL     OW 3265   4.246   4.129   2.297
 1070SOL    HW1 3266   4.209   4.215   2.316
 1070SOL    HW2 3267   4.313   4.116   2.364
 1071SOL     OW 3268   1.246   0.703   1.135
 1071SOL    HW1 3269   1.189   0.765   1.090
 1071SOL    HW2 3270   1.223   0.711   1.227
 1072SOL     OW 3271   1.261   2.231   3.889
 1072SOL    HW1 3272   1.235   2.279   3.968
 1072SOL    HW2 3273   1.246   2.139   3.910
 1073SOL     OW 3274   4.058   2.526   1.176
 1073SOL    HW1 3275   3.963   2.537   1.170
 1073SOL    HW2 3276   4.078   2.536   1.269
 1074SOL     OW 3277   3.405   0.431   2.952
 1074SOL    HW1 3278   3.434   0.514   2.913
 1074SOL    HW2 3279   3.445   0.364   2.897
 1075SOL     OW 3280   0.287   0.364   1.681
 1075SOL    HW1 3281   0.368   0.329   1.644
 1075SOL    HW2 3282   0.309   0.386   1.771
 1076SOL     OW 3283   3.920   1.555   4.394
 1076SOL    HW1 3284   3.841   1.573   4.343
 1076SOL    HW2 3285   3.992   1.578   4.336
 1077SOL     OW 3286   2.453   3.844   2.636
 1077SOL    HW1 3287   2.533   3.847   2.583
 1077SOL    HW2 3288   2.437   3.936   2.659
 1078SOL     OW 3289   2.450   3.683   0.217
 1078SOL    HW1 3290   2.387   3.742   0.175
 1078SOL    HW2 3291   2.529   3.737   0.227
 1079SOL     OW 3292   2.837   4.381   0.812
 1079SOL    HW1 3293   2.874   4.295   0.831
 1079SOL    HW2 3294   2.758   4.386   0.865
 1080SOL     OW 3295   4.947   2.686   3.870
 1080SOL    HW1 3296   4.949   2.699   3.964
 1080SOL    HW2 3297   4.942   2.774   3.833
 1081SOL     OW 3298   2.861   4.533   4.500
 1081SOL    HW1 3299   2.934   4.592   4.482
 1081SOL    HW2 3300   2.894   4.446   4.475
 1082SOL     OW 3301   3.961   0.009   3.686
 1082SOL    HW1 3302   3.889   0.049   3.735
 1082SOL    HW2 3303   3.924   4.969   3.599
 1083SOL     OW 3304   3.495   4.299   3.450
 1083SOL    HW1 3305   3.589   4.289   3.439
 1083SOL    HW2 3306   3.463   4.210   3.464
 1084SOL     OW 3307   0.182   3.569   1.559
 1084SOL    HW1 3308   0.187   3.485   1.514
 1084SOL    HW2 3309   0.271   3.584   1.592
 1085SOL     OW 3310   3.828   1.336   2.878
 1085SOL    HW1 3311   3.850   1.409   2.820
 1085SOL    HW2 3312   3.869   1.260   2.839
 1086SOL     OW 3313   1.097   3.073   1.857
 1086SOL    HW1 3314   1.014   3.029   1.838
 1086SOL    HW2 3315   1.131   3.027   1.933
 1087SOL     OW 3316   4.651   0.157   4.965
 1087SOL    HW1 3317   4.722   0.137   4.905
 1087SOL    HW2 3318   4.580   0.187   4.909
 1088SOL     OW 3319   2.524   2.289   0.250
 1088SOL    HW1 3320   2.526   2.383   0.234
 1088SOL    HW2 3321   2.609   2.269   0.290
 1089SOL     OW 3322   1.412   2.554   4.255
 1089SOL    HW1 3323   1.462   2.543   4.175
 1089SOL    HW2 3324   1.372   2.641   4.247
 1090SOL     OW 3325   2.708   0.349   0.857
 1090SOL    HW1 3326   2.765   0.316   0.926
 1090SOL    HW2 3327   2.755   0.424   0.820
 1091SOL     OW 3328   1.508   0.902   0.721
 1091SOL    HW1 3329   1.418   0.927   0.701
 1091SOL    HW2 3330   1.553   0.903   0.637
 1092SOL     OW 3331   2.646   0.288   4.897
 1092SOL    HW1 3332   2.686   0.247   4.820
 1092SOL    HW2 3333   2.606   0.215   4.944
 1093SOL     OW 3334   1.209   4.483   3.902
 1093SOL    HW1 3335   1.291   4.475   3.950
 1093SOL    HW2 3336   1.171   4.395   3.905
 1094SOL     OW 3337   4.408   0.104   2.593
 1094SOL    HW1 3338   4.503   0.113   2.592
 1094SOL    HW2 3339   4.379   0.139   2.508
 1095SOL     OW 3340   3.838   0.037   0.411
 1095SOL    HW1 3341   3.920   0.042   0.460
 1095SOL    HW2 3342   3.862   0.063   0.322
 1096SOL     OW 3343   4.146   1.390   0.659
 1096SOL    HW1 3344   4.196   1.365   0.737
 1096SOL    HW2 3345   4.125   1.308   0.616
 1097SOL     OW 3346   3.392   1.551   4.849
 1097SOL    HW1 3347   3.457   1.482   4.832
 1097SOL    HW2 3348   3.371   1.542   4.942
 1098SOL     OW 3349   2.600   0.360   4.470
 1098SOL    HW1 3350   2.561   0.446   4.487
 1098SOL    HW2 3351   2.680   0.359   4.523
 1099SOL     OW 3352   1.882   2.803   3.916
 1099SOL    HW1 3353   1.960   2.765   3.956
 1099SOL    HW2 3354   1.870   2.755   3.834
 1100SOL     OW 3355   2.054   1.991   3.459
 1100SOL    HW1 3356   2.081   2.043   3.535
 1100SOL    HW2 3357   2.104   2.027   3.386
 1101SOL     OW 3358   2.302   3.020   1.758
 1101SOL    HW1 3359   2.378   2.991   1.808
 1101SOL    HW2 3360   2.228   3.006   1.817
 1102SOL     OW 3361   0.924   2.562   2.260
 1102SOL    HW1 3362   0.852   2.566   2.322
 1102SOL    HW2 3363   0.988   2.625   2.293
 1103SOL     OW 3364   2.778   3.290   4.968
 1103SOL    HW1 3365   2.838   3.360   4.943
 1103SOL    HW2 3366   2.786   3.225   4.898
 1104SOL     OW 3367   0.613   2.825   4.379
 1104SOL    HW1 3368   0.527   2.868   4.389
 1104SOL    HW2 3369   0.604   2.772   4.300
 1105SOL     OW 3370   0.103   1.005   1.079
 1105SOL    HW1 3371   0.114   1.052   0.997
 1105SOL    HW2 3372   0.011   1.017   1.102
 1106SOL     OW 3373   4.794   0.409   2.410
 1106SOL    HW1 3374   4.838   0.369   2.486
 1106SOL    HW2 3375   4.843   0.490   2.395
 1107SOL     OW 3376   0.390   1.822   4.554
 1107SOL    HW1 3377   0.461   1.814   4.489
 1107SOL    HW2 3378   0.436   1.832   4.637
 1108SOL     OW 3379   3.189   1.143   3.169
 1108SOL    HW1 3380   3.226   1.055   3.177
 1108SOL    HW2 3381   3.236   1.182   3.096
 1109SOL     OW 3382   1.105   4.071   2.007
 1109SOL    HW1 3383   1.053   4.005   1.961
 1109SOL    HW2 3384   1.194   4.055   1.978
 1110SOL     OW 3385   3.785   2.107   4.352
 1110SOL    HW1 3386   3.748   2.192   4.377
 1110SOL    HW2 3387   3.863   2.098   4.408
 1111SOL     OW 3388   4.114   3.636   3.170
 1111SOL    HW1 3389   4.190   3.682   3.206
 1111SOL    HW2 3390   4.062   3.705   3.128
 1112SOL     OW 3391   3.633   0.300   4.202
 1112SOL    HW1 3392   3.708   0.338   4.155
 1112SOL    HW2 3393   3.666   0.218   4.237
 1113SOL     OW 3394   3.658   1.281   1.974
 1113SOL    HW1 3395   3.601   1.251   1.903
 1113SOL    HW2 3396   3.689   1.201   2.015
 1114SOL     OW 3397   3.648   3.216   4.171
 1114SOL    HW1 3398   3.703   3.238   4.247
 1114SOL    HW2 3399   3.708   3.179   4.107
 1115SOL     OW 3400   2.841   4.772   3.727
 1115SOL    HW1 3401   2.759   4.810   3.757
 1115SOL    HW2 3402   2.904   4.845   3.730
 1116SOL     OW 3403   0.906   4.850   4.839
 1116SOL    HW1 3404   0.870   4.907   4.771
 1116SOL    HW2 3405   0.908   4.904   4.918
 1117SOL     OW 3406   2.240   3.549   4.904
 1117SOL    HW1 3407   2.188   3.470   4.911
 1117SOL    HW2 3408   2.204   3.596   4.829
 1118SOL     OW 3409   0.380   2.428   0.588
 1118SOL    HW1 3410   0.314   2.381   0.639
 1118SOL    HW2 3411   0.343   2.434   0.500
 1119SOL     OW 3412   4.781   1.219   3.038
 1119SOL    HW1 3413   4.858   1.167   3.015
 1119SOL    HW2 3414   4.817   1.298   3.077
 1120SOL     OW 3415   0.516   4.397   3.957
 1120SOL    HW1 3416   0.607   4.390   3.926
 1120SOL    HW2 3417   0.522   4.378   4.051
 1121SOL     OW 3418   0.576   4.525   3.103
 1121SOL    HW1 3419   0.524   4.489   3.031
 1121SOL    HW2 3420   0.622   4.449   3.139
 1122SOL     OW 3421   4.363   4.675   1.918
 1122SOL    HW1 3422   4.428   4.689   1.987
 1122SOL    HW2 3423   4.411   4.630   1.849
 1123SOL     OW 3424   4.141   3.655   2.368
 1123SOL    HW1 3425   4.137   3.750   2.357
 1123SOL    HW2 3426   4.140   3.642   2.463
 1124SOL     OW 3427   2.608   3.926   1.631
 1124SOL    HW1 3428   2.624   4.020   1.619
 1124SOL    HW2 3429   2.549   3.922   1.707
 1125SOL     OW 3430   2.773   2.460   0.105
 1125SOL    HW1 3431   2.843   2.502   0.155
 1125SOL    HW2 3432   2.695   2.510   0.128
 1126SOL     OW 3433   3.511   3.365   0.642
 1126SOL    HW1 3434   3.436   3.406   0.685
 1126SOL    HW2 3435   3.541   3.299   0.704
 1127SOL     OW 3436   0.614   3.474   0.292
 1127SOL    HW1 3437   0.634   3.400   0.235
 1127SOL    HW2 3438   0.591   3.434   0.376
 1128SOL     OW 3439   1.964   1.749   3.292
 1128SOL    HW1 3440   1.974   1.808   3.366
 1128SOL    HW2 3441   1.966   1.661   3.331
 1129SOL     OW 3442   1.603   2.758   4.678
 1129SOL    HW1 3443   1.627   2.724   4.592
 1129SOL    HW2 3444   1.537   2.697   4.710
 1130SOL     OW 3445   3.922   1.839   4.656
 1130SOL    HW1 3446   3.862   1.899   4.700
 1130SOL    HW2 3447   3.874   1.756   4.652
 1131SOL     OW 3448   1.661   1.600   4.104
 1131SOL    HW1 3449   1.663   1.645   4.019
 1131SOL    HW2 3450   1.575   1.558   4.107
 1132SOL     OW 3451   1.869   3.306   2.264
 1132SOL    HW1 3452   1.837   3.322   2.353
 1132SOL    HW2 3453   1.813   3.237   2.229
 1133SOL     OW 3454   0.536   1.309   1.976
 1133SOL    HW1 3455   0.613   1.268   2.017
 1133SOL    HW2 3456   0.484   1.340   2.050
 1134SOL     OW 3457   0.351   2.799   0.872
 1134SOL    HW1 3458   0.266   2.798   0.828
 1134SOL    HW2 3459   0.381   2.708   0.869
 1135SOL     OW 3460   0.687   3.559   1.204
 1135SOL    HW1 3461   0.672   3.628   1.268
 1135SOL    HW2 3462   0.665   3.600   1.120
 1136SOL     OW 3463   2.972   0.278   0.994
 1136SOL    HW1 3464   2.971   0.187   0.966
 1136SOL    HW2 3465   2.968   0.329   0.913
 1137SOL     OW 3466   3.375   2.281   3.439
 1137SOL    HW1 3467   3.444   2.347   3.441
 1137SOL    HW2 3468   3.300   2.325   3.400
 1138SOL     OW 3469   0.023   4.912   0.271
 1138SOL    HW1 3470   0.002   4.898   0.363
 1138SOL    HW2 3471   0.115   4.885   0.263
 1139SOL     OW 3472   1.166   4.125   0.468
 1139SOL    HW1 3473   1.078   4.164   0.470
 1139SOL    HW2 3474   1.160   4.049   0.526
 1140SOL     OW 3475   3.092   1.720   4.909
 1140SOL    HW1 3476   3.158   1.780   4.875
 1140SOL    HW2 3477   3.112   1.712   0.026
 1141SOL     OW 3478   1.217   0.730   3.957
 1141SOL    HW1 3479   1.166   0.679   3.894
 1141SOL    HW2 3480   1.308   0.704   3.943
 1142SOL     OW 3481   2.845   3.099   2.728
 1142SOL    HW1 3482   2.783   3.033   2.758
 1142SOL    HW2 3483   2.929   3.071   2.764
 1143SOL     OW 3484   3.269   1.722   1.907
 1143SOL    HW1 3485   3.215   1.733   1.829
 1143SOL    HW2 3486   3.352   1.686   1.875
 1144SOL     OW 3487   1.879   1.232   2.874
 1144SOL    HW1 3488   1.919   1.272   2.797
 1144SOL    HW2 3489   1.871   1.139   2.850
 1145SOL     OW 3490   4.105   2.000   3.797
 1145SOL    HW1 3491   4.114   2.080   3.746
 1145SOL    HW2 3492   4.038   2.020   3.862
 1146SOL     OW 3493   1.458   4.194   4.201
 1146SOL    HW1 3494   1.389   4.146   4.157
 1146SOL    HW2 3495   1.537   4.142   4.188
 1147SOL     OW 3496   2.576   0.674   0.611
 1147SOL    HW1 3497   2.576   0.603   0.547
 1147SOL    HW2 3498   2.634   0.644   0.680
 1148SOL     OW 3499   1.358   4.160   3.937
 1148SOL    HW1 3500   1.334   4.117   3.855
 1148SOL    HW2 3501   1.450   4.184   3.925
 1149SOL     OW 3502   2.226   0.090   0.754
 1149SOL    HW1 3503   2.284   0.167   0.751
 1149SOL    HW2 3504   2.180   0.098   0.838
 1150SOL     OW 3505   4.563   2.701   1.658
 1150SOL    HW1 3506   4.623   2.754   1.605
 1150SOL    HW2 3507   4.620   2.639   1.703
 1151SOL     OW 3508   4.881   4.908   3.908
 1151SOL    HW1 3509   4.842   0.011   3.943
 1151SOL    HW2 3510   4.932   4.872   3.982
 1152SOL     OW 3511   1.651   2.905   3.118
 1152SOL    HW1 3512   1.596   2.828   3.133
 1152SOL    HW2 3513   1.602   2.957   3.055
 1153SOL     OW 3514   1.772   2.976   2.433
 1153SOL    HW1 3515   1.705   2.962   2.500
 1153SOL    HW2 3516   1.824   3.049   2.466
 1154SOL     OW 3517   2.780   3.961   4.131
 1154SOL    HW1 3518   2.767   3.902   4.056
 1154SOL    HW2 3519   2.734   4.042   4.106
 1155SOL     OW 3520   3.687   3.797   3.785
 1155SOL    HW1 3521   3.684   3.745   3.705
 1155SOL    HW2 3522   3.678   3.733   3.856
 1156SOL     OW 3523   1.446   1.039   3.783
 1156SOL    HW1 3524   1.513   1.034   3.715
 1156SOL    HW2 3525   1.365   1.014   3.737
 1157SOL     OW 3526   1.611   2.092   1.755
 1157SOL    HW1 3527   1.689   2.129   1.797
 1157SOL    HW2 3528   1.580   2.161   1.696
 1158SOL     OW 3529   1.828   3.678   4.276
 1158SOL    HW1 3530   1.848   3.586   4.294
 1158SOL    HW2 3531   1.826   3.684   4.180
 1159SOL     OW 3532   3.784   0.132   4.954
 1159SOL    HW1 3533   3.790   0.037   4.945
 1159SOL    HW2 3534   3.715   0.158   4.894
 1160SOL     OW 3535   4.396   0.573   2.378
 1160SOL    HW1 3536   4.422   0.535   2.461
 1160SOL    HW2 3537   4.360   0.500   2.328
 1161SOL     OW 3538   1.980   2.564   3.581
 1161SOL    HW1 3539   2.040   2.595   3.513
 1161SOL    HW2 3540   2.011   2.476   3.602
 1162SOL     OW 3541   1.080   0.714   4.546
 1162SOL    HW1 3542   0.993   0.724   4.584
 1162SOL    HW2 3543   1.109   0.803   4.526
 1163SOL     OW 3544   1.602   1.495   3.689
 1163SOL    HW1 3545   1.665   1.443   3.739
 1163SOL    HW2 3546   1.631   1.487   3.598
 1164SOL     OW 3547   4.841   0.557   4.619
 1164SOL    HW1 3548   4.816   0.640   4.578
 1164SOL    HW2 3549   4.780   0.547   4.692
 1165SOL     OW 3550   3.789   0.868   2.388
 1165SOL    HW1 3551   3.778   0.829   2.475
 1165SOL    HW2 3552   3.847   0.808   2.342
 1166SOL     OW 3553   1.212   3.116   1.625
 1166SOL    HW1 3554   1.171   3.189   1.577
 1166SOL    HW2 3555   1.164   3.111   1.707
 1167SOL     OW 3556   1.252   3.567   0.638
 1167SOL    HW1 3557   1.199   3.526   0.571
 1167SOL    HW2 3558   1.241   3.511   0.715
 1168SOL     OW 3559   4.505   0.805   3.220
 1168SOL    HW1 3560   4.497   0.882   3.163
 1168SOL    HW2 3561   4.521   0.732   3.159
 1169SOL     OW 3562   2.675   2.089   1.241
 1169SOL    HW1 3563   2.728   2.152   1.192
 1169SOL    HW2 3564   2.627   2.040   1.174
 1170SOL     OW 3565   3.043   4.849   4.007
 1170SOL    HW1 3566   2.950   4.843   3.983
 1170SOL    HW2 3567   3.070   4.758   4.021
 1171SOL     OW 3568   2.277   4.309   2.257
 1171SOL    HW1 3569   2.221   4.240   2.292
 1171SOL    HW2 3570   2.255   4.314   2.164
 1172SOL     OW 3571   1.348   2.182   2.271
 1172SOL    HW1 3572   1.382   2.271   2.265
 1172SOL    HW2 3573   1.357   2.147   2.182
 1173SOL     OW 3574   1.741   0.076   0.135
 1173SOL    HW1 3575   1.689   0.119   0.203
 1173SOL    HW2 3576   1.679   0.018   0.090
 1174SOL     OW 3577   1.368   0.291   3.337
 1174SOL    HW1 3578   1.346   0.358   3.272
 1174SOL    HW2 3579   1.314   0.216   3.314
 1175SOL     OW 3580   3.049   3.856   4.769
 1175SOL    HW1 3581   3.044   3.952   4.772
 1175SOL    HW2 3582   2.958   3.828   4.758
 1176SOL     OW 3583   2.984   2.208   1.150
 1176SOL    HW1 3584   2.968   2.274   1.218
 1176SOL    HW2 3585   2.941   2.129   1.184
 1177SOL     OW 3586   4.065   4.675   1.789
 1177SOL    HW1 3587   4.089   4.584   1.805
 1177SOL    HW2 3588   4.085   4.689   1.696
 1178SOL     OW 3589   2.547   2.717   1.246
 1178SOL    HW1 3590   2.542   2.808   1.215
 1178SOL    HW2 3591   2.464   2.703   1.292
 1179SOL     OW 3592   0.218   4.303   1.438
 1179SOL    HW1 3593   0.282   4.304   1.509
 1179SOL    HW2 3594   0.185   4.393   1.435
 1180SOL     OW 3595   0.774   1.691   0.899
 1180SOL    HW1 3596   0.811   1.614   0.942
 1180SOL    HW2 3597   0.832   1.763   0.924
 1181SOL     OW 3598   2.221   0.068   1.815
 1181SOL    HW1 3599   2.220   0.162   1.835
 1181SOL    HW2 3600   2.163   0.059   1.740
 1182SOL     OW 3601   4.721   3.546   2.838
 1182SOL    HW1 3602   4.649   3.503   2.883
 1182SOL    HW2 3603   4.716   3.637   2.867
 1183SOL     OW 3604   4.062   4.269   0.181
 1183SOL    HW1 3605   4.090   4.189   0.225
 1183SOL    HW2 3606   4.119   4.276   0.104
 1184SOL     OW 3607   3.432   2.127   4.178
 1184SOL    HW1 3608   3.484   2.145   4.100
 1184SOL    HW2 3609   3.408   2.034   4.170
 1185SOL     OW 3610   4.300   2.830   0.733
 1185SOL    HW1 3611   4.307   2.782   0.816
 1185SOL    HW2 3612   4.267   2.916   0.757
 1186SOL     OW 3613   4.141   4.156   1.453
 1186SOL    HW1 3614   4.132   4.108   1.371
 1186SOL    HW2 3615   4.104   4.097   1.519
 1187SOL     OW 3616   1.176   4.933   4.546
 1187SOL    HW1 3617   1.260   4.966   4.579
 1187SOL    HW2 3618   1.193   4.912   4.454
 1188SOL     OW 3619   1.582   2.378   0.312
 1188SOL    HW1 3620   1.595   2.402   0.404
 1188SOL    HW2 3621   1.655   2.420   0.266
 1189SOL     OW 3622   2.721   3.637   3.305
 1189SOL    HW1 3623   2.693   3.713   3.254
 1189SOL    HW2 3624   2.672   3.645   3.387
 1190SOL     OW 3625   2.117   0.841   4.195
 1190SOL    HW1 3626   2.193   0.898   4.186
 1190SOL    HW2 3627   2.049   0.897   4.233
 1191SOL     OW 3628   3.763   0.457   1.279
 1191SOL    HW1 3629   3.680   0.496   1.252
 1191SOL    HW2 3630   3.828   0.494   1.220
 1192SOL     OW 3631   0.688   2.585   2.084
 1192SOL    HW1 3632   0.693   2.550   1.995
 1192SOL    HW2 3633   0.765   2.550   2.128
 1193SOL     OW 3634   0.809   2.066   0.272
 1193SOL    HW1 3635   0.777   2.083   0.183
 1193SOL    HW2 3636   0.894   2.110   0.276
 1194SOL     OW 3637   4.283   4.676   3.682
 1194SOL    HW1 3638   4.262   4.767   3.702
 1194SOL    HW2 3639   4.379   4.674   3.682
 1195SOL     OW 3640   4.255   4.581   1.420
 1195SOL    HW1 3641   4.178   4.532   1.450
 1195SOL    HW2 3642   4.274   4.642   1.492
 1196SOL     OW 3643   0.156   3.001   2.116
 1196SOL    HW1 3644   0.204   3.073   2.075
 1196SOL    HW2 3645   0.119   3.040   2.196
 1197SOL     OW 3646   2.992   4.285   3.324
 1197SOL    HW1 3647   2.998   4.213   3.261
 1197SOL    HW2 3648   2.935   4.349   3.281
 1198SOL     OW 3649   1.509   4.408   2.312
 1198SOL    HW1 3650   1.514   4.491   2.358
 1198SOL    HW2 3651   1.422   4.407   2.272
 1199SOL     OW 3652   0.637   4.373   1.341
 1199SOL    HW1 3653   0.667   4.365   1.431
 1199SOL    HW2 3654   0.710   4.413   1.294
 1200SOL     OW 3655   1.476   3.170   4.868
 1200SOL    HW1 3656   1.526   3.089   4.869
 1200SOL    HW2 3657   1.419   3.163   4.792
 1201SOL     OW 3658   4.837   3.293   0.659
 1201SOL    HW1 3659   4.814   3.304   0.751
 1201SOL    HW2 3660   4.900   3.363   0.641
 1202SOL     OW 3661   1.378   1.310   1.316
 1202SOL    HW1 3662   1.365   1.401   1.289
 1202SOL    HW2 3663   1.337   1.305   1.402
 1203SOL     OW 3664   3.848   0.462   1.548
 1203SOL    HW1 3665   3.841   0.475   1.453
 1203SOL    HW2 3666   3.941   0.468   1.566
 1204SOL     OW 3667   1.859   3.371   4.268
 1204SOL    HW1 3668   1.934   3.332   4.312
 1204SOL    HW2 3669   1.872   3.349   4.175
 1205SOL     OW 3670   1.046   1.908   2.962
 1205SOL    HW1 3671   1.059   1.905   2.867
 1205SOL    HW2 3672   0.980   1.976   2.976
 1206SOL     OW 3673   2.452   1.650   0.362
 1206SOL    HW1 3674   2.501   1.731   0.373
 1206SOL    HW2 3675   2.434   1.645   0.268
 1207SOL     OW 3676   2.491   3.236   3.426
 1207SOL    HW1 3677   2.585   3.223   3.435
 1207SOL    HW2 3678   2.477   3.325   3.459
 1208SOL     OW 3679   2.229   1.401   3.358
 1208SOL    HW1 3680   2.258   1.407   3.449
 1208SOL    HW2 3681   2.148   1.452   3.356
 1209SOL     OW 3682   3.272   1.762   3.208
 1209SOL    HW1 3683   3.255   1.832   3.146
 1209SOL    HW2 3684   3.345   1.794   3.261
 1210SOL     OW 3685   2.450   1.150   1.765
 1210SOL    HW1 3686   2.521   1.145   1.701
 1210SOL    HW2 3687   2.371   1.161   1.712
 1211SOL     OW 3688   1.760   0.855   3.061
 1211SOL    HW1 3689   1.768   0.795   3.135
 1211SOL    HW2 3690   1.771   0.942   3.100
 1212SOL     OW 3691   1.100   2.783   4.256
 1212SOL    HW1 3692   1.055   2.839   4.193
 1212SOL    HW2 3693   1.160   2.843   4.302
 1213SOL     OW 3694   3.249   1.216   4.128
 1213SOL    HW1 3695   3.288   1.276   4.192
 1213SOL    HW2 3696   3.188   1.163   4.179
 1214SOL     OW 3697   3.100   1.285   0.482
 1214SOL    HW1 3698   3.020   1.279   0.429
 1214SOL    HW2 3699   3.164   1.232   0.434
 1215SOL     OW 3700   0.841   3.310   1.164
 1215SOL    HW1 3701   0.799   3.390   1.195
 1215SOL    HW2 3702   0.834   3.314   1.069
 1216SOL     OW 3703   1.480   0.709   3.960
 1216SOL    HW1 3704   1.560   0.751   3.989
 1216SOL    HW2 3705   1.489   0.618   3.988
 1217SOL     OW 3706   1.619   3.661   2.182
 1217SOL    HW1 3707   1.714   3.651   2.177
 1217SOL    HW2 3708   1.605   3.755   2.192
 1218SOL     OW 3709   2.056   4.867   4.201
 1218SOL    HW1 3710   2.124   4.829   4.258
 1218SOL    HW2 3711   1.980   4.810   4.214
 1219SOL     OW 3712   0.575   2.435   4.804
 1219SOL    HW1 3713   0.565   2.389   4.721
 1219SOL    HW2 3714   0.631   2.510   4.784
 1220SOL     OW 3715   0.533   4.503   0.882
 1220SOL    HW1 3716   0.616   4.462   0.857
 1220SOL    HW2 3717   0.557   4.590   0.912
 1221SOL     OW 3718   3.575   0.773   4.734
 1221SOL    HW1 3719   3.579   0.794   4.641
 1221SOL    HW2 3720   3.634   0.698   4.744
 1222SOL     OW 3721   3.205   1.815   3.917
 1222SOL    HW1 3722   3.294   1.778   3.919
 1222SOL    HW2 3723   3.157   1.761   3.855
 1223SOL     OW 3724   4.857   3.969   1.952
 1223SOL    HW1 3725   4.938   3.933   1.916
 1223SOL    HW2 3726   4.887   4.031   2.019
 1224SOL     OW 3727   3.291   2.826   1.166
 1224SOL    HW1 3728   3.220   2.777   1.207
 1224SOL    HW2 3729   3.341   2.759   1.118
 1225SOL     OW 3730   3.126   1.674   0.206
 1225SOL    HW1 3731   3.180   1.616   0.259
 1225SOL    HW2 3732   3.036   1.654   0.232
 1226SOL     OW 3733   0.467   4.486   2.219
 1226SOL    HW1 3734   0.400   4.550   2.194
 1226SOL    HW2 3735   0.434   4.403   2.184
 1227SOL     OW 3736   2.293   3.797   4.971
 1227SOL    HW1 3737   2.288   3.701   4.966
 1227SOL    HW2 3738   2.272   3.827   4.883
 1228SOL     OW 3739   1.152   1.653   4.450
 1228SOL    HW1 3740   1.216   1.680   4.384
 1228SOL    HW2 3741   1.197   1.667   4.533
 1229SOL     OW 3742   0.552   1.016   2.439
 1229SOL    HW1 3743   0.638   1.044   2.469
 1229SOL    HW2 3744   0.497   1.094   2.447
 1230SOL     OW 3745   1.800   4.177   1.333
 1230SOL    HW1 3746   1.749   4.136   1.263
 1230SOL    HW2 3747   1.760   4.264   1.343
 1231SOL     OW 3748   0.155   4.376   0.494
 1231SOL    HW1 3749   0.116   4.377   0.407
 1231SOL    HW2 3750   0.080   4.379   0.554
 1232SOL     OW 3751   1.216   0.676   1.863
 1232SOL    HW1 3752   1.145   0.650   1.804
 1232SOL    HW2 3753   1.267   0.595   1.876
 1233SOL     OW 3754   0.952   0.625   0.719
 1233SOL    HW1 3755   0.883   0.656   0.778
 1233SOL    HW2 3756   0.954   0.530   0.733
 1234SOL     OW 3757   3.958   0.248   4.706
 1234SOL    HW1 3758   3.893   0.219   4.641
 1234SOL    HW2 3759   3.924   0.217   4.790
 1235SOL     OW 3760   0.114   2.612   3.651
 1235SOL    HW1 3761   0.068   2.688   3.688
 1235SOL    HW2 3762   0.167   2.579   3.724
 1236SOL     OW 3763   3.975   3.478   2.973
 1236SOL    HW1 3764   3.885   3.500   2.997
 1236SOL    HW2 3765   4.025   3.494   3.053
 1237SOL     OW 3766   2.379   1.872   2.032
 1237SOL    HW1 3767   2.296   1.870   1.985
 1237SOL    HW2 3768   2.419   1.955   2.008
 1238SOL     OW 3769   3.300   4.209   1.165
 1238SOL    HW1 3770   3.221   4.193   1.217
 1238SOL    HW2 3771   3.318   4.302   1.178
 1239SOL     OW 3772   0.594   4.839   3.449
 1239SOL    HW1 3773   0.679   4.882   3.462
 1239SOL    HW2 3774   0.595   4.767   3.512
 1240SOL     OW 3775   1.324   2.753   4.041
 1240SOL    HW1 3776   1.286   2.840   4.032
 1240SOL    HW2 3777   1.326   2.718   3.951
 1241SOL     OW 3778   1.055   0.223   2.375
 1241SOL    HW1 3779   1.147   0.197   2.376
 1241SOL    HW2 3780   1.055   0.313   2.406
 1242SOL     OW 3781   0.270   2.563   1.962
 1242SOL    HW1 3782   0.271   2.543   2.056
 1242SOL    HW2 3783   0.359   2.543   1.932
 1243SOL     OW 3784   2.455   0.476   2.764
 1243SOL    HW1 3785   2.369   0.497   2.802
 1243SOL    HW2 3786   2.518   0.505   2.829
 1244SOL     OW 3787   3.694   1.990   2.770
 1244SOL    HW1 3788   3.738   2.013   2.688
 1244SOL    HW2 3789   3.715   1.897   2.782
 1245SOL     OW 3790   4.417   2.489   0.649
 1245SOL    HW1 3791   4.488   2.441   0.692
 1245SOL    HW2 3792   4.348   2.424   0.638
 1246SOL     OW 3793   1.227   4.470   1.761
 1246SOL    HW1 3794   1.246   4.519   1.681
 1246SOL    HW2 3795   1.280   4.391   1.754
 1247SOL     OW 3796   0.758   2.874   1.995
 1247SOL    HW1 3797   0.723   2.959   2.021
 1247SOL    HW2 3798   0.681   2.819   1.983
 1248SOL     OW 3799   4.022   4.692   0.366
 1248SOL    HW1 3800   4.039   4.758   0.433
 1248SOL    HW2 3801   4.010   4.741   0.285
 1249SOL     OW 3802   2.997   4.832   2.590
 1249SOL    HW1 3803   2.978   4.900   2.655
 1249SOL    HW2 3804   2.962   4.867   2.508
 1250SOL     OW 3805   4.680   4.767   2.560
 1250SOL    HW1 3806   4.674   4.717   2.641
 1250SOL    HW2 3807   4.773   4.771   2.540
 1251SOL     OW 3808   4.603   2.099   2.599
 1251SOL    HW1 3809   4.618   2.141   2.683
 1251SOL    HW2 3810   4.608   2.005   2.618
 1252SOL     OW 3811   4.136   3.123   2.190
 1252SOL    HW1 3812   4.128   3.060   2.119
 1252SOL    HW2 3813   4.060   3.106   2.246
 1253SOL     OW 3814   1.138   0.752   2.110
 1253SOL    HW1 3815   1.144   0.848   2.119
 1253SOL    HW2 3816   1.163   0.736   2.019
 1254SOL     OW 3817   3.919   2.318   0.070
 1254SOL    HW1 3818   3.906   2.268   4.965
 1254SOL    HW2 3819   3.957   2.401   0.040
 1255SOL     OW 3820   3.486   3.786   4.541
 1255SOL    HW1 3821   3.554   3.718   4.547
 1255SOL    HW2 3822   3.534   3.868   4.553
 1256SOL     OW 3823   4.598   1.679   1.568
 1256SOL    HW1 3824   4.565   1.712   1.484
 1256SOL    HW2 3825   4.545   1.724   1.633
 1257SOL     OW 3826   3.941   0.148   1.599
 1257SOL    HW1 3827   4.006   0.188   1.657
 1257SOL    HW2 3828   3.857   0.182   1.630
 1258SOL     OW 3829   2.684   2.569   0.758
 1258SOL    HW1 3830   2.760   2.529   0.799
 1258SOL    HW2 3831   2.655   2.636   0.821
 1259SOL     OW 3832   3.359   1.002   2.538
 1259SOL    HW1 3833   3.338   1.090   2.569
 1259SOL    HW2 3834   3.281   0.950   2.556
 1260SOL     OW 3835   3.016   0.056   1.874
 1260SOL    HW1 3836   2.948   0.011   1.924
 1260SOL    HW2 3837   2.971   0.092   1.798
 1261SOL     OW 3838   2.154   4.292   3.668
 1261SOL    HW1 3839   2.086   4.268   3.606
 1261SOL    HW2 3840   2.118   4.367   3.716
 1262SOL     OW 3841   4.243   0.584   1.033
 1262SOL    HW1 3842   4.251   0.507   1.089
 1262SOL    HW2 3843   4.332   0.603   1.005
 1263SOL     OW 3844   3.523   1.703   0.992
 1263SOL    HW1 3845   3.539   1.713   0.898
 1263SOL    HW2 3846   3.489   1.614   1.000
 1264SOL     OW 3847   0.325   2.024   1.958
 1264SOL    HW1 3848   0.257   2.067   1.906
 1264SOL    HW2 3849   0.395   2.004   1.896
 1265SOL     OW 3850   0.845   1.024   2.404
 1265SOL    HW1 3851   0.821   0.932   2.417
 1265SOL    HW2 3852   0.837   1.038   2.310
 1266SOL     OW 3853   0.590   3.728   0.746
 1266SOL    HW1 3854   0.549   3.704   0.829
 1266SOL    HW2 3855   0.529   3.698   0.679
 1267SOL     OW 3856   1.622   0.548   0.456
 1267SOL    HW1 3857   1.631   0.454   0.471
 1267SOL    HW2 3858   1.615   0.586   0.543
 1268SOL     OW 3859   0.774   4.856   1.211
 1268SOL    HW1 3860   0.694   4.860   1.159
 1268SOL    HW2 3861   0.768   4.929   1.272
 1269SOL     OW 3862   2.297   2.393   1.514
 1269SOL    HW1 3863   2.216   2.380   1.563
 1269SOL    HW2 3864   2.301   2.488   1.500
 1270SOL     OW 3865   4.469   3.967   4.420
 1270SOL    HW1 3866   4.515   3.902   4.367
 1270SOL    HW2 3867   4.384   3.928   4.438
 1271SOL     OW 3868   4.863   1.935   1.739
 1271SOL    HW1 3869   4.845   1.974   1.824
 1271SOL    HW2 3870   4.882   2.009   1.682
 1272SOL     OW 3871   4.595   3.567   0.434
 1272SOL    HW1 3872   4.667   3.613   0.392
 1272SOL    HW2 3873   4.632   3.483   0.461
 1273SOL     OW 3874   2.404   4.372   3.937
 1273SOL    HW1 3875   2.423   4.441   3.874
 1273SOL    HW2 3876   2.347   4.413   4.002
 1274SOL     OW 3877   0.180   0.589   2.645
 1274SOL    HW1 3878   0.090   0.566   2.665
 1274SOL    HW2 3879   0.232   0.519   2.685
 1275SOL     OW 3880   4.889   1.683   1.296
 1275SOL    HW1 3881   4.873   1.623   1.370
 1275SOL    HW2 3882   4.864   1.632   1.219
 1276SOL     OW 3883   0.024   0.746   3.144
 1276SOL    HW1 3884   0.029   0.773   3.052
 1276SOL    HW2 3885   0.010   0.827   3.193
 1277SOL     OW 3886   1.790   4.559   4.443
 1277SOL    HW1 3887   1.863   4.513   4.485
 1277SOL    HW2 3888   1.822   4.581   4.356
 1278SOL     OW 3889   4.770   4.561   1.174
 1278SOL    HW1 3890   4.822   4.489   1.208
 1278SOL    HW2 3891   4.683   4.524   1.159
 1279SOL     OW 3892   2.752   4.831   4.460
 1279SOL    HW1 3893   2.773   4.758   4.403
 1279SOL    HW2 3894   2.658   4.845   4.448
 1280SOL     OW 3895   2.193   3.592   3.651
 1280SOL    HW1 3896   2.208   3.500   3.672
 1280SOL    HW2 3897   2.201   3.597   3.556
 1281SOL     OW 3898   4.778   1.996   0.543
 1281SOL    HW1 3899   4.872   1.991   0.558
 1281SOL    HW2 3900   4.764   1.950   0.460
 1282SOL     OW 3901   2.917   3.553   0.541
 1282SOL    HW1 3902   2.988   3.497   0.511
 1282SOL    HW2 3903   2.953   3.598   0.618
 1283SOL     OW 3904   0.590   0.301   0.640
 1283SOL    HW1 3905   0.571   0.376   0.584
 1283SOL    HW2 3906   0.512   0.291   0.695
 1284SOL     OW 3907   4.671   0.156   2.168
 1284SOL    HW1 3908   4.724   0.127   2.094
 1284SOL    HW2 3909   4.687   0.250   2.174
 1285SOL     OW 3910   4.889   2.982   1.292
 1285SOL    HW1 3911   0.000   3.003   1.326
 1285SOL    HW2 3912   4.889   3.017   1.203
 1286SOL     OW 3913   0.467   4.110   4.749
 1286SOL    HW1 3914   0.419   4.027   4.748
 1286SOL    HW2 3915   0.556   4.086   4.776
 1287SOL     OW 3916   3.004   4.399   0.271
 1287SOL    HW1 3917   3.044   4.381   0.356
 1287SOL    HW2 3918   3.063   4.462   0.229
 1288SOL     OW 3919   1.264   2.652   2.781
 1288SOL    HW1 3920   1.280   2.631   2.872
 1288SOL    HW2 3921   1.258   2.568   2.737
 1289SOL     OW 3922   1.285   3.723   3.054
 1289SOL    HW1 3923   1.231   3.651   3.085
 1289SOL    HW2 3924   1.375   3.691   3.063
 1290SOL     OW 3925   3.107   0.064   0.522
 1290SOL    HW1 3926   3.185   0.114   0.543
 1290SOL    HW2 3927   3.036   0.128   0.524
 1291SOL     OW 3928   4.459   3.830   0.858
 1291SOL    HW1 3929   4.429   3.784   0.779
 1291SOL    HW2 3930   4.387   3.890   0.878
 1292SOL     OW 3931   4.167   0.434   3.050
 1292SOL    HW1 3932   4.261   0.424   3.066
 1292SOL    HW2 3933   4.131   0.461   3.134
 1293SOL     OW 3934   1.971   0.331   0.346
 1293SOL    HW1 3935   1.920   0.323   0.266
 1293SOL    HW2 3936   1.958   0.422   0.374
 1294SOL     OW 3937   4.156   2.040   3.473
 1294SOL    HW1 3938   4.235   2.086   3.444
 1294SOL    HW2 3939   4.173   1.948   3.453
 1295SOL     OW 3940   3.822   0.624   2.889
 1295SOL    HW1 3941   3.740   0.615   2.939
 1295SOL    HW2 3942   3.857   0.535   2.886
 1296SOL     OW 3943   2.158   1.381   4.896
 1296SOL    HW1 3944   2.217   1.312   4.865
 1296SOL    HW2 3945   2.180   1.457   4.842
 1297SOL     OW 3946   1.398   2.880   1.972
 1297SOL    HW1 3947   1.406   2.941   2.045
 1297SOL    HW2 3948   1.404   2.794   2.012
 1298SOL     OW 3949   2.541   1.782   2.333
 1298SOL    HW1 3950   2.448   1.803   2.326
 1298SOL    HW2 3951   2.557   1.719   2.263
 1299SOL     OW 3952   2.508   2.616   4.051
 1299SOL    HW1 3953   2.417   2.634   4.073
 1299SOL    HW2 3954   2.504   2.540   3.993
 1300SOL     OW 3955   0.719   0.924   0.543
 1300SOL    HW1 3956   0.771   0.923   0.623
 1300SOL    HW2 3957   0.770   0.975   0.481
 1301SOL     OW 3958   2.726   2.331   0.959
 1301SOL    HW1 3959   2.795   2.372   1.011
 1301SOL    HW2 3960   2.765   2.251   0.924
 1302SOL     OW 3961   3.464   1.181   4.342
 1302SOL    HW1 3962   3.479   1.144   4.255
 1302SOL    HW2 3963   3.544   1.231   4.360
 1303SOL     OW 3964   1.680   1.651   1.607
 1303SOL    HW1 3965   1.612   1.593   1.641
 1303SOL    HW2 3966   1.699   1.617   1.519
 1304SOL     OW 3967   1.271   2.621   3.042
 1304SOL    HW1 3968   1.255   2.565   3.118
 1304SOL    HW2 3969   1.349   2.671   3.066
 1305SOL     OW 3970   3.740   3.014   2.519
 1305SOL    HW1 3971   3.729   3.057   2.604
 1305SOL    HW2 3972   3.680   2.939   2.523
 1306SOL     OW 3973   2.673   2.754   3.160
 1306SOL    HW1 3974   2.637   2.833   3.118
 1306SOL    HW2 3975   2.701   2.783   3.246
 1307SOL     OW 3976   2.745   2.865   2.423
 1307SOL    HW1 3977   2.806   2.803   2.463
 1307SOL    HW2 3978   2.790   2.949   2.427
 1308SOL     OW 3979   3.567   4.552   1.120
 1308SOL    HW1 3980   3.570   4.553   1.024
 1308SOL    HW2 3981   3.654   4.580   1.147
 1309SOL     OW 3982   2.333   2.939   4.300
 1309SOL    HW1 3983   2.320   3.020   4.251
 1309SOL    HW2 3984   2.375   2.967   4.381
 1310SOL     OW 3985   3.063   1.084   3.698
 1310SOL    HW1 3986   3.102   1.103   3.612
 1310SOL    HW2 3987   3.014   1.163   3.720
 1311SOL     OW 3988   2.079   0.692   0.621
 1311SOL    HW1 3989   2.015   0.695   0.692
 1311SOL    HW2 3990   2.156   0.650   0.661
 1312SOL     OW 3991   1.229   0.216   0.710
 1312SOL    HW1 3992   1.221   0.273   0.634
 1312SOL    HW2 3993   1.305   0.249   0.758
 1313SOL     OW 3994   0.118   0.390   4.350
 1313SOL    HW1 3995   0.153   0.467   4.396
 1313SOL    HW2 3996   0.059   0.350   4.413
 1314SOL     OW 3997   4.594   2.694   1.013
 1314SOL    HW1 3998   4.571   2.745   1.091
 1314SOL    HW2 3999   4.509   2.673   0.973
 1315SOL     OW 4000   0.745   2.219   2.819
 1315SOL    HW1 4001   0.729   2.166   2.741
 1315SOL    HW2 4002   0.743   2.309   2.788
 1316SOL     OW 4003   3.830   4.829   4.974
 1316SOL    HW1 4004   3.856   4.749   4.928
 1316SOL    HW2 4005   3.774   4.799   0.070
 1317SOL     OW 4006   4.514   3.114   3.146
 1317SOL    HW1 4007   4.587   3.118   3.207
 1317SOL    HW2 4008   4.443   3.075   3.196
 1318SOL     OW 4009   4.598   2.843   1.249
 1318SOL    HW1 4010   4.538   2.910   1.283
 1318SOL    HW2 4011   4.682   2.862   1.290
 1319SOL     OW 4012   0.861   2.987   0.824
 1319SOL    HW1 4013   0.874   2.992   0.919
 1319SOL    HW2 4014   0.780   2.936   0.814
 1320SOL     OW 4015   0.504   1.937   1.418
 1320SOL    HW1 4016   0.547   2.005   1.470
 1320SOL    HW2 4017   0.574   1.875   1.399
 1321SOL     OW 4018   0.827   4.623   0.399
 1321SOL    HW1 4019   0.818   4.630   0.304
 1321SOL    HW2 4020   0.891   4.691   0.422
 1322SOL     OW 4021   0.732   3.493   4.571
 1322SOL    HW1 4022   0.660   3.464   4.627
 1322SOL    HW2 4023   0.810   3.456   4.612
 1323SOL     OW 4024   2.023   1.220   1.670
 1323SOL    HW1 4025   2.060   1.174   1.595
 1323SOL    HW2 4026   2.017   1.311   1.642
 1324SOL     OW 4027   0.282   0.823   4.867
 1324SOL    HW1 4028   0.224   0.866   4.929
 1324SOL    HW2 4029   0.223   0.782   4.803
 1325SOL     OW 4030   0.345   0.913   4.467
 1325SOL    HW1 4031   0.380   0.942   4.551
 1325SOL    HW2 4032   0.407   0.948   4.402
 1326SOL     OW 4033   3.902   4.513   0.532
 1326SOL    HW1 4034   3.943   4.584   0.481
 1326SOL    HW2 4035   3.964   4.496   0.603
 1327SOL     OW 4036   3.999   2.056   3.096
 1327SOL    HW1 4037   3.953   2.056   3.179
 1327SOL    HW2 4038   4.012   2.149   3.075
 1328SOL     OW 4039   1.151   3.677   0.184
 1328SOL    HW1 4040   1.242   3.680   0.154
 1328SOL    HW2 4041   1.117   3.764   0.167
 1329SOL     OW 4042   1.824   2.495   2.810
 1329SOL    HW1 4043   1.768   2.425   2.845
 1329SOL    HW2 4044   1.765   2.569   2.798
 1330SOL     OW 4045   1.632   4.845   2.458
 1330SOL    HW1 4046   1.615   4.807   2.545
 1330SOL    HW2 4047   1.706   4.795   2.424
 1331SOL     OW 4048   1.808   2.427   2.395
 1331SOL    HW1 4049   1.722   2.407   2.432
 1331SOL    HW2 4050   1.870   2.390   2.458
 1332SOL     OW 4051   0.159   0.961   2.117
 1332SOL    HW1 4052   0.250   0.934   2.122
 1332SOL    HW2 4053   0.117   0.917   2.191
 1333SOL     OW 4054   4.939   0.581   0.577
 1333SOL    HW1 4055   4.972   0.663   0.541
 1333SOL    HW2 4056   4.880   0.547   0.510
 1334SOL     OW 4057   4.757   3.159   3.295
 1334SOL    HW1 4058   4.791   3.229   3.350
 1334SOL    HW2 4059   4.787   3.179   3.207
 1335SOL     OW 4060   2.054   1.027   3.271
 1335SOL    HW1 4061   2.089   1.017   3.182
 1335SOL    HW2 4062   1.971   1.072   3.259
 1336SOL     OW 4063   2.610   0.826   3.948
 1336SOL    HW1 4064   2.639   0.908   3.988
 1336SOL    HW2 4065   2.531   0.849   3.900
 1337SOL     OW 4066   3.119   0.347   1.873
 1337SOL    HW1 4067   3.132   0.261   1.833
 1337SOL    HW2 4068   3.148   0.336   1.963
 1338SOL     OW 4069   2.832   0.831   4.679
 1338SOL    HW1 4070   2.798   0.921   4.681
 1338SOL    HW2 4071   2.850   0.810   4.771
 1339SOL     OW 4072   0.515   0.757   1.628
 1339SOL    HW1 4073   0.422   0.740   1.614
 1339SOL    HW2 4074   0.558   0.673   1.610
 1340SOL     OW 4075   0.072   3.253   4.795
 1340SOL    HW1 4076   0.104   3.253   4.705
 1340SOL    HW2 4077   4.954   3.237   4.787
 1341SOL     OW 4078   1.906   1.841   1.449
 1341SOL    HW1 4079   1.883   1.782   1.377
 1341SOL    HW2 4080   1.824   1.852   1.497
 1342SOL     OW 4081   3.309   0.122   3.479
 1342SOL    HW1 4082   3.343   0.169   3.403
 1342SOL    HW2 4083   3.224   0.088   3.451
 1343SOL     OW 4084   3.079   3.975   1.387
 1343SOL    HW1 4085   3.025   4.053   1.369
 1343SOL    HW2 4086   3.148   3.978   1.321
 1344SOL     OW 4087   2.371   2.995   2.723
 1344SOL    HW1 4088   2.305   2.957   2.782
 1344SOL    HW2 4089   2.373   3.088   2.745
 1345SOL     OW 4090   4.388   4.774   2.603
 1345SOL    HW1 4091   4.474   4.753   2.567
 1345SOL    HW2 4092   4.399   4.860   2.644
 1346SOL     OW 4093   1.266   4.556   4.905
 1346SOL    HW1 4094   1.329   4.518   4.966
 1346SOL    HW2 4095   1.320   4.592   4.835
 1347SOL     OW 4096   2.727   2.446   3.232
 1347SOL    HW1 4097   2.803   2.503   3.222
 1347SOL    HW2 4098   2.746   2.371   3.177
 1348SOL     OW 4099   0.613   2.736   1.142
 1348SOL    HW1 4100   0.694   2.686   1.129
 1348SOL    HW2 4101   0.566   2.687   1.209
 1349SOL     OW 4102   3.012   1.079   0.644
 1349SOL    HW1 4103   3.099   1.040   0.640
 1349SOL    HW2 4104   3.022   1.165   0.603
 1350SOL     OW 4105   3.228   4.008   2.685
 1350SOL    HW1 4106   3.292   3.994   2.615
 1350SOL    HW2 4107   3.145   4.019   2.640
 1351SOL     OW 4108   0.047   2.613   4.690
 1351SOL    HW1 4109   0.083   2.691   4.647
 1351SOL    HW2 4110   0.010   2.647   4.772
 1352SOL     OW 4111   4.927   0.280   4.569
 1352SOL    HW1 4112   4.874   0.358   4.588
 1352SOL    HW2 4113   4.909   0.220   4.641
 1353SOL     OW 4114   3.420   1.447   1.099
 1353SOL    HW1 4115   3.406   1.466   1.192
 1353SOL    HW2 4116   3.503   1.399   1.097
 1354SOL     OW 4117   0.709   2.648   1.625
 1354SOL    HW1 4118   0.800   2.668   1.604
 1354SOL    HW2 4119   0.674   2.731   1.658
 1355SOL     OW 4120   3.047   0.008   3.751
 1355SOL    HW1 4121   3.092   4.936   3.821
 1355SOL    HW2 4122   3.046   0.099   3.781
 1356SOL     OW 4123   2.057   2.407   1.649
 1356SOL    HW1 4124   2.048   2.496   1.682
 1356SOL    HW2 4125   2.005   2.406   1.568
 1357SOL     OW 4126   2.424   3.533   1.705
 1357SOL    HW1 4127   2.497   3.596   1.708
 1357SOL    HW2 4128   2.466   3.449   1.725
 1358SOL     OW 4129   4.850   1.674   1.700
 1358SOL    HW1 4130   4.769   1.679   1.650
 1358SOL    HW2 4131   4.875   1.765   1.715
 1359SOL     OW 4132   0.438   4.328   0.443
 1359SOL    HW1 4133   0.463   4.247   0.489
 1359SOL    HW2 4134   0.351   4.348   0.478
 1360SOL     OW 4135   4.635   0.644   4.861
 1360SOL    HW1 4136   4.598   0.730   4.842
 1360SOL    HW2 4137   4.562   0.592   4.894
 1361SOL     OW 4138   4.568   0.675   0.997
 1361SOL    HW1 4139   4.638   0.631   1.046
 1361SOL    HW2 4140   4.560   0.624   0.916
 1362SOL     OW 4141   2.950   3.625   1.839
 1362SOL    HW1 4142   2.890   3.620   1.914
 1362SOL    HW2 4143   2.940   3.541   1.795
 1363SOL     OW 4144   4.286   2.148   1.363
 1363SOL    HW1 4145   4.258   2.222   1.310
 1363SOL    HW2 4146   4.241   2.073   1.325
 1364SOL     OW 4147   3.306   0.357   1.492
 1364SOL    HW1 4148   3.391   0.366   1.535
 1364SOL    HW2 4149   3.326   0.318   1.407
 1365SOL     OW 4150   4.884   4.747   2.200
 1365SOL    HW1 4151   4.938   4.825   2.215
 1365SOL    HW2 4152   4.799   4.770   2.237
 1366SOL     OW 4153   2.445   3.480   3.468
 1366SOL    HW1 4154   2.514   3.542   3.493
 1366SOL    HW2 4155   2.365   3.532   3.469
 1367SOL     OW 4156   1.991   2.592   2.307
 1367SOL    HW1 4157   2.041   2.583   2.388
 1367SOL    HW2 4158   1.910   2.543   2.324
 1368SOL     OW 4159   4.547   4.404   2.603
 1368SOL    HW1 4160   4.454   4.408   2.625
 1368SOL    HW2 4161   4.571   4.312   2.616
 1369SOL     OW 4162   4.490   4.115   2.622
 1369SOL    HW1 4163   4.439   4.066   2.557
 1369SOL    HW2 4164   4.534   4.048   2.674
 1370SOL     OW 4165   3.149   4.355   4.066
 1370SOL    HW1 4166   3.155   4.271   4.021
 1370SOL    HW2 4167   3.205   4.345   4.143
 1371SOL     OW 4168   1.941   1.590   3.050
 1371SOL    HW1 4169   2.024   1.544   3.046
 1371SOL    HW2 4170   1.953   1.657   3.118
 1372SOL     OW 4171   4.714   0.047   2.986
 1372SOL    HW1 4172   4.644   4.968   3.021
 1372SOL    HW2 4173   4.750   0.092   3.063
 1373SOL     OW 4174   2.068   3.319   1.856
 1373SOL    HW1 4175   2.083   3.274   1.939
 1373SOL    HW2 4176   1.982   3.289   1.827
 1374SOL     OW 4177   0.617   4.600   1.898
 1374SOL    HW1 4178   0.614   4.695   1.887
 1374SOL    HW2 4179   0.557   4.566   1.832
 1375SOL     OW 4180   1.539   4.644   3.282
 1375SOL    HW1 4181   1.552   4.566   3.336
 1375SOL    HW2 4182   1.628   4.673   3.260
 1376SOL     OW 4183   0.838   2.550   4.078
 1376SOL    HW1 4184   0.919   2.602   4.070
 1376SOL    HW2 4185   0.855   2.471   4.026
 1377SOL     OW 4186   2.558   3.313   1.788
 1377SOL    HW1 4187   2.593   3.254   1.855
 1377SOL    HW2 4188   2.559   3.261   1.708
 1378SOL     OW 4189   1.157   0.483   2.454
 1378SOL    HW1 4190   1.211   0.478   2.533
 1378SOL    HW2 4191   1.221   0.491   2.383
 1379SOL     OW 4192   4.697   3.857   0.051
 1379SOL    HW1 4193   4.757   3.931   0.064
 1379SOL    HW2 4194   4.660   3.872   4.940
 1380SOL     OW 4195   2.674   0.380   3.674
 1380SOL    HW1 4196   2.752   0.331   3.648
 1380SOL    HW2 4197   2.677   0.381   3.770
 1381SOL     OW 4198   4.061   3.387   3.318
 1381SOL    HW1 4199   3.994   3.341   3.268
 1381SOL    HW2 4200   4.051   3.479   3.293
 1382SOL     OW 4201   1.763   1.655   4.884
 1382SOL    HW1 4202   1.684   1.704   4.906
 1382SOL    HW2 4203   1.743   1.564   4.909
 1383SOL     OW 4204   4.735   2.887   1.499
 1383SOL    HW1 4205   4.782   2.928   1.427
 1383SOL    HW2 4206   4.684   2.959   1.538
 1384SOL     OW 4207   3.812   0.939   0.176
 1384SOL    HW1 4208   3.818   0.945   0.081
 1384SOL    HW2 4209   3.880   0.997   0.208
 1385SOL     OW 4210   2.815   0.688   3.812
 1385SOL    HW1 4211   2.785   0.598   3.824
 1385SOL    HW2 4212   2.754   0.740   3.865
 1386SOL     OW 4213   0.807   3.594   2.053
 1386SOL    HW1 4214   0.875   3.612   2.119
 1386SOL    HW2 4215   0.836   3.641   1.976
 1387SOL     OW 4216   2.858   0.628   4.455
 1387SOL    HW1 4217   2.887   0.686   4.526
 1387SOL    HW2 4218   2.917   0.553   4.458
 1388SOL     OW 4219   3.013   4.731   4.945
 1388SOL    HW1 4220   2.951   4.663   4.971
 1388SOL    HW2 4221   3.060   4.694   4.871
 1389SOL     OW 4222   2.144   4.708   2.023
 1389SOL    HW1 4223   2.079   4.779   2.025
 1389SOL    HW2 4224   2.111   4.644   2.087
 1390SOL     OW 4225   3.633   3.595   0.847
 1390SOL    HW1 4226   3.612   3.688   0.854
 1390SOL    HW2 4227   3.550   3.553   0.823
 1391SOL     OW 4228   4.002   4.467   4.088
 1391SOL    HW1 4229   3.987   4.385   4.136
 1391SOL    HW2 4230   3.932   4.470   4.023
 1392SOL     OW 4231   0.497   1.896   0.283
 1392SOL    HW1 4232   0.485   1.934   0.370
 1392SOL    HW2 4233   0.505   1.802   0.299
 1393SOL     OW 4234   0.245   3.642   4.408
 1393SOL    HW1 4235   0.326   3.648   4.357
 1393SOL    HW2 4236   0.238   3.726   4.453
 1394SOL     OW 4237   2.320   0.098   4.285
 1394SOL    HW1 4238   2.308   0.185   4.247
 1394SOL    HW2 4239   2.263   0.097   4.361
 1395SOL     OW 4240   0.777   0.201   2.570
 1395SOL    HW1 4241   0.697   0.168   2.613
 1395SOL    HW2 4242   0.843   0.134   2.589
 1396SOL     OW 4243   3.210   3.550   4.136
 1396SOL    HW1 4244   3.290   3.499   4.147
 1396SOL    HW2 4245   3.221   3.625   4.194
 1397SOL     OW 4246   2.390   4.562   3.736
 1397SOL    HW1 4247   2.344   4.623   3.678
 1397SOL    HW2 4248   2.476   4.603   3.750
 1398SOL     OW 4249   1.432   1.987   0.587
 1398SOL    HW1 4250   1.358   1.969   0.528
 1398SOL    HW2 4251   1.508   1.955   0.539
 1399SOL     OW 4252   0.751   2.514   2.724
 1399SOL    HW1 4253   0.675   2.570   2.704
 1399SOL    HW2 4254   0.817   2.573   2.759
 1400SOL     OW 4255   3.115   0.068   2.811
 1400SOL    HW1 4256   3.120   4.950   2.825
 1400SOL    HW2 4257   3.056   0.099   2.880
 1401SOL     OW 4258   4.175   0.906   0.396
 1401SOL    HW1 4259   4.207   0.994   0.380
 1401SOL    HW2 4260   4.110   0.916   0.466
 1402SOL     OW 4261   4.902   1.312   1.249
 1402SOL    HW1 4262   0.019   1.327   1.233
 1402SOL    HW2 4263   4.858   1.384   1.205
 1403SOL     OW 4264   1.874   0.896   0.351
 1403SOL    HW1 4265   1.956   0.883   0.304
 1403SOL    HW2 4266   1.843   0.982   0.322
 1404SOL     OW 4267   4.351   1.512   4.257
 1404SOL    HW1 4268   4.292   1.587   4.251
 1404SOL    HW2 4269   4.412   1.535   4.326
 1405SOL     OW 4270   1.589   2.880   1.405
 1405SOL    HW1 4271   1.507   2.849   1.368
 1405SOL    HW2 4272   1.577   2.975   1.413
 1406SOL     OW 4273   0.970   0.015   4.075
 1406SOL    HW1 4274   1.034   0.042   4.141
 1406SOL    HW2 4275   0.886   0.038   4.114
 1407SOL     OW 4276   0.160   2.192   1.807
 1407SOL    HW1 4277   0.155   2.256   1.736
 1407SOL    HW2 4278   0.098   2.224   1.872
 1408SOL     OW 4279   3.827   1.237   1.333
 1408SOL    HW1 4280   3.803   1.254   1.424
 1408SOL    HW2 4281   3.744   1.217   1.289
 1409SOL     OW 4282   0.363   2.283   0.971
 1409SOL    HW1 4283   0.285   2.260   0.919
 1409SOL    HW2 4284   0.434   2.234   0.930
 1410SOL     OW 4285   1.799   0.122   3.089
 1410SOL    HW1 4286   1.748   0.058   3.039
 1410SOL    HW2 4287   1.735   0.183   3.125
 1411SOL     OW 4288   0.059   2.350   4.830
 1411SOL    HW1 4289   0.014   2.412   4.774
 1411SOL    HW2 4290   0.142   2.393   4.852
 1412SOL     OW 4291   1.032   1.961   2.661
 1412SOL    HW1 4292   1.098   1.937   2.596
 1412SOL    HW2 4293   0.965   2.007   2.610
 1413SOL     OW 4294   3.367   2.547   2.609
 1413SOL    HW1 4295   3.444   2.540   2.552
 1413SOL    HW2 4296   3.316   2.618   2.571
 1414SOL     OW 4297   2.855   1.547   2.565
 1414SOL    HW1 4298   2.895   1.559   2.651
 1414SOL    HW2 4299   2.908   1.601   2.506
 1415SOL     OW 4300   4.670   2.706   3.774
 1415SOL    HW1 4301   4.760   2.732   3.752
 1415SOL    HW2 4302   4.649   2.638   3.710
 1416SOL     OW 4303   2.444   0.029   2.526
 1416SOL    HW1 4304   2.403   4.935   2.578
 1416SOL    HW2 4305   2.460   4.966   2.441
 1417SOL     OW 4306   3.765   3.046   0.072
 1417SOL    HW1 4307   3.713   2.986   0.125
 1417SOL    HW2 4308   3.830   2.990   0.030
 1418SOL     OW 4309   3.938   2.975   0.337
 1418SOL    HW1 4310   4.019   3.025   0.322
 1418SOL    HW2 4311   3.968   2.897   0.383
 1419SOL     OW 4312   2.209   3.763   4.331
 1419SOL    HW1 4313   2.184   3.816   4.255
 1419SOL    HW2 4314   2.207   3.673   4.298
 1420SOL     OW 4315   3.831   3.602   4.795
 1420SOL    HW1 4316   3.891   3.528   4.800
 1420SOL    HW2 4317   3.764   3.584   4.861
 1421SOL     OW 4318   3.961   0.671   1.752
 1421SOL    HW1 4319   4.016   0.710   1.820
 1421SOL    HW2 4320   3.925   0.592   1.792
 1422SOL     OW 4321   4.887   2.131   2.248
 1422SOL    HW1 4322   4.835   2.208   2.273
 1422SOL    HW2 4323   4.822   2.063   2.231
 1423SOL     OW 4324   1.884   2.650   0.668
 1423SOL    HW1 4325   1.880   2.580   0.603
 1423SOL    HW2 4326   1.948   2.711   0.634
 1424SOL     OW 4327   1.154   0.952   2.706
 1424SOL    HW1 4328   1.181   0.864   2.680
 1424SOL    HW2 4329   1.098   0.937   2.783
 1425SOL     OW 4330   1.970   1.566   2.405
 1425SOL    HW1 4331   1.940   1.516   2.329
 1425SOL    HW2 4332   1.889   1.590   2.451
 1426SOL     OW 4333   1.885   3.267   3.991
 1426SOL    HW1 4334   1.874   3.184   4.037
 1426SOL    HW2 4335   1.979   3.285   3.995
 1427SOL     OW 4336   4.705   4.538   3.368
 1427SOL    HW1 4337   4.622   4.507   3.405
 1427SOL    HW2 4338   4.725   4.618   3.416
 1428SOL     OW 4339   3.475   3.655   2.988
 1428SOL    HW1 4340   3.396   3.670   2.936
 1428SOL    HW2 4341   3.546   3.690   2.934
 1429SOL     OW 4342   1.115   1.368   3.742
 1429SOL    HW1 4343   1.068   1.407   3.669
 1429SOL    HW2 4344   1.206   1.396   3.730
 1430SOL     OW 4345   0.725   3.518   3.933
 1430SOL    HW1 4346   0.773   3.562   3.863
 1430SOL    HW2 4347   0.692   3.438   3.892
 1431SOL     OW 4348   3.599   3.306   1.489
 1431SOL    HW1 4349   3.670   3.370   1.493
 1431SOL    HW2 4350   3.540   3.332   1.561
 1432SOL     OW 4351   3.177   1.368   4.351
 1432SOL    HW1 4352   3.129   1.445   4.381
 1432SOL    HW2 4353   3.159   1.302   4.418
 1433SOL     OW 4354   3.125   0.886   4.661
 1433SOL    HW1 4355   3.180   0.825   4.612
 1433SOL    HW2 4356   3.035   0.862   4.637
 1434SOL     OW 4357   4.115   0.187   2.401
 1434SOL    HW1 4358   4.210   0.196   2.394
 1434SOL    HW2 4359   4.102   0.104   2.447
 1435SOL     OW 4360   0.104   0.998   1.843
 1435SOL    HW1 4361   0.130   1.090   1.830
 1435SOL    HW2 4362   0.114   0.983   1.937
 1436SOL     OW 4363   4.677   0.474   4.234
 1436SOL    HW1 4364   4.751   0.428   4.193
 1436SOL    HW2 4365   4.706   0.565   4.241
 1437SOL     OW 4366   1.528   2.331   1.641
 1437SOL    HW1 4367   1.512   2.396   1.709
 1437SOL    HW2 4368   1.466   2.353   1.572
 1438SOL     OW 4369   1.013   3.711   2.725
 1438SOL    HW1 4370   1.074   3.780   2.700
 1438SOL    HW2 4371   0.994   3.665   2.644
 1439SOL     OW 4372   4.171   1.992   2.894
 1439SOL    HW1 4373   4.138   2.029   2.812
 1439SOL    HW2 4374   4.103   2.010   2.958
 1440SOL     OW 4375   1.397   1.640   1.802
 1440SOL    HW1 4376   1.421   1.732   1.810
 1440SOL    HW2 4377   1.308   1.635   1.839
 1441SOL     OW 4378   0.126   1.391   1.548
 1441SOL    HW1 4379   0.088   1.445   1.617
 1441SOL    HW2 4380   0.074   1.310   1.550
 1442SOL     OW 4381   3.844   2.041   2.543
 1442SOL    HW1 4382   3.856   1.954   2.506
 1442SOL    HW2 4383   3.925   2.088   2.521
 1443SOL     OW 4384   2.819   1.144   4.343
 1443SOL    HW1 4385   2.874   1.080   4.299
 1443SOL    HW2 4386   2.858   1.153   4.430
 1444SOL     OW 4387   1.615   3.039   0.364
 1444SOL    HW1 4388   1.688   2.990   0.403
 1444SOL    HW2 4389   1.647   3.129   0.358
 1445SOL     OW 4390   4.352   3.284   2.283
 1445SOL    HW1 4391   4.292   3.245   2.219
 1445SOL    HW2 4392   4.361   3.375   2.255
 1446SOL     OW 4393   0.673   1.501   2.658
 1446SOL    HW1 4394   0.720   1.550   2.590
 1446SOL    HW2 4395   0.641   1.423   2.613
 1447SOL     OW 4396   4.192   3.184   4.318
 1447SOL    HW1 4397   4.167   3.105   4.268
 1447SOL    HW2 4398   4.278   3.207   4.283
 1448SOL     OW 4399   4.070   3.271   4.653
 1448SOL    HW1 4400   4.149   3.226   4.624
 1448SOL    HW2 4401   4.091   3.364   4.643
 1449SOL     OW 4402   2.244   4.773   2.568
 1449SOL    HW1 4403   2.202   4.776   2.654
 1449SOL    HW2 4404   2.313   4.707   2.577
 1450SOL     OW 4405   3.614   2.147   1.255
 1450SOL    HW1 4406   3.604   2.057   1.226
 1450SOL    HW2 4407   3.548   2.196   1.205
 1451SOL     OW 4408   0.636   0.125   3.195
 1451SOL    HW1 4409   0.635   0.154   3.286
 1451SOL    HW2 4410   0.563   0.064   3.188
 1452SOL     OW 4411   1.417   2.550   3.853
 1452SOL    HW1 4412   1.392   2.496   3.778
 1452SOL    HW2 4413   1.482   2.497   3.899
 1453SOL     OW 4414   1.843   2.492   0.900
 1453SOL    HW1 4415   1.903   2.419   0.881
 1453SOL    HW2 4416   1.869   2.560   0.838
 1454SOL     OW 4417   3.681   0.435   2.676
 1454SOL    HW1 4418   3.637   0.374   2.734
 1454SOL    HW2 4419   3.737   0.379   2.621
 1455SOL     OW 4420   3.387   0.500   2.276
 1455SOL    HW1 4421   3.410   0.488   2.183
 1455SOL    HW2 4422   3.339   0.421   2.299
 1456SOL     OW 4423   1.509   3.537   0.884
 1456SOL    HW1 4424   1.450   3.608   0.910
 1456SOL    HW2 4425   1.519   3.548   0.789
 1457SOL     OW 4426   3.369   3.549   0.795
 1457SOL    HW1 4427   3.280   3.513   0.793
 1457SOL    HW2 4428   3.356   3.643   0.809
 1458SOL     OW 4429   2.987   3.220   0.455
 1458SOL    HW1 4430   3.026   3.304   0.435
 1458SOL    HW2 4431   2.893   3.237   0.457
 1459SOL     OW 4432   1.224   4.163   0.818
 1459SOL    HW1 4433   1.297   4.223   0.835
 1459SOL    HW2 4434   1.159   4.217   0.774
 1460SOL     OW 4435   3.541   2.610   2.387
 1460SOL    HW1 4436   3.604   2.549   2.427
 1460SOL    HW2 4437   3.579   2.632   2.303
 1461SOL     OW 4438   3.544   1.978   1.904
 1461SOL    HW1 4439   3.479   1.974   1.833
 1461SOL    HW2 4440   3.509   2.042   1.965
 1462SOL     OW 4441   3.084   3.308   3.178
 1462SOL    HW1 4442   2.994   3.316   3.208
 1462SOL    HW2 4443   3.088   3.363   3.100
 1463SOL     OW 4444   0.799   0.313   0.929
 1463SOL    HW1 4445   0.869   0.348   0.873
 1463SOL    HW2 4446   0.782   0.383   0.992
 1464SOL     OW 4447   4.674   2.223   4.752
 1464SOL    HW1 4448   4.697   2.312   4.726
 1464SOL    HW2 4449   4.579   2.223   4.755
 1465SOL     OW 4450   4.845   0.605   3.664
 1465SOL    HW1 4451   4.774   0.623   3.725
 1465SOL    HW2 4452   4.858   0.687   3.617
 1466SOL     OW 4453   3.275   2.308   3.711
 1466SOL    HW1 4454   3.320   2.287   3.629
 1466SOL    HW2 4455   3.276   2.227   3.761
 1467SOL     OW 4456   2.341   1.063   1.299
 1467SOL    HW1 4457   2.342   0.982   1.247
 1467SOL    HW2 4458   2.400   1.122   1.253
 1468SOL     OW 4459   2.080   0.481   3.531
 1468SOL    HW1 4460   2.015   0.427   3.486
 1468SOL    HW2 4461   2.031   0.555   3.565
 1469SOL     OW 4462   2.791   1.381   0.696
 1469SOL    HW1 4463   2.876   1.423   0.687
 1469SOL    HW2 4464   2.794   1.338   0.782
 1470SOL     OW 4465   0.482   4.372   3.428
 1470SOL    HW1 4466   0.440   4.288   3.449
 1470SOL    HW2 4467   0.411   4.436   3.431
 1471SOL     OW 4468   1.251   3.592   2.374
 1471SOL    HW1 4469   1.259   3.670   2.319
 1471SOL    HW2 4470   1.179   3.612   2.434
 1472SOL     OW 4471   4.535   1.509   3.132
 1472SOL    HW1 4472   4.501   1.596   3.151
 1472SOL    HW2 4473   4.610   1.499   3.191
 1473SOL     OW 4474   2.058   0.114   0.969
 1473SOL    HW1 4475   2.141   0.109   1.016
 1473SOL    HW2 4476   1.999   0.160   1.028
 1474SOL     OW 4477   3.748   1.305   1.625
 1474SOL    HW1 4478   3.689   1.366   1.670
 1474SOL    HW2 4479   3.759   1.233   1.686
 1475SOL     OW 4480   4.076   4.101   3.384
 1475SOL    HW1 4481   4.030   4.159   3.323
 1475SOL    HW2 4482   4.066   4.143   3.469
 1476SOL     OW 4483   0.105   3.115   2.376
 1476SOL    HW1 4484   0.085   3.207   2.355
 1476SOL    HW2 4485   0.046   3.095   2.449
 1477SOL     OW 4486   3.301   2.222   0.399
 1477SOL    HW1 4487   3.348   2.304   0.385
 1477SOL    HW2 4488   3.369   2.154   0.397
 1478SOL     OW 4489   3.395   3.061   4.697
 1478SOL    HW1 4490   3.324   3.077   4.759
 1478SOL    HW2 4491   3.419   3.148   4.664
 1479SOL     OW 4492   3.160   3.570   3.540
 1479SOL    HW1 4493   3.243   3.558   3.494
 1479SOL    HW2 4494   3.119   3.484   3.539
 1480SOL     OW 4495   4.389   0.795   2.928
 1480SOL    HW1 4496   4.361   0.887   2.924
 1480SOL    HW2 4497   4.474   0.793   2.884
 1481SOL     OW 4498   4.463   0.255   3.987
 1481SOL    HW1 4499   4.527   0.189   3.960
 1481SOL    HW2 4500   4.490   0.279   4.075
 1482SOL     OW 4501   1.909   2.929   3.011
 1482SOL    HW1 4502   1.931   3.009   2.963
 1482SOL    HW2 4503   1.815   2.934   3.025
 1483SOL     OW 4504   0.303   1.657   2.172
 1483SOL    HW1 4505   0.300   1.661   2.076
 1483SOL    HW2 4506   0.232   1.715   2.200
 1484SOL     OW 4507   0.704   0.766   2.779
 1484SOL    HW1 4508   0.686   0.690   2.834
 1484SOL    HW2 4509   0.620   0.787   2.738
 1485SOL     OW 4510   4.314   4.008   1.716
 1485SOL    HW1 4511   4.287   3.948   1.646
 1485SOL    HW2 4512   4.278   4.093   1.689
 1486SOL     OW 4513   4.886   4.499   0.584
 1486SOL    HW1 4514   4.878   4.522   0.677
 1486SOL    HW2 4515   4.808   4.446   0.566
 1487SOL     OW 4516   1.136   2.844   1.323
 1487SOL    HW1 4517   1.116   2.937   1.325
 1487SOL    HW2 4518   1.230   2.840   1.306
 1488SOL     OW 4519   4.621   0.380   1.263
 1488SOL    HW1 4520   4.673   0.439   1.208
 1488SOL    HW2 4521   4.608   0.302   1.209
 1489SOL     OW 4522   0.117   1.036   1.424
 1489SOL    HW1 4523   0.026   1.006   1.416
 1489SOL    HW2 4524   0.118   1.089   1.503
 1490SOL     OW 4525   4.783   0.392   1.791
 1490SOL    HW1 4526   4.786   0.297   1.800
 1490SOL    HW2 4527   4.699   0.418   1.827
 1491SOL     OW 4528   4.176   2.251   4.146
 1491SOL    HW1 4529   4.163   2.180   4.210
 1491SOL    HW2 4530   4.269   2.273   4.154
 1492SOL     OW 4531   2.397   4.171   3.543
 1492SOL    HW1 4532   2.471   4.231   3.550
 1492SOL    HW2 4533   2.327   4.223   3.503
 1493SOL     OW 4534   2.097   0.549   2.435
 1493SOL    HW1 4535   2.086   0.540   2.340
 1493SOL    HW2 4536   2.184   0.587   2.445
 1494SOL     OW 4537   4.789   2.877   3.165
 1494SOL    HW1 4538   4.763   2.926   3.087
 1494SOL    HW2 4539   4.883   2.892   3.172
 1495SOL     OW 4540   0.454   2.046   0.076
 1495SOL    HW1 4541   0.465   1.987   0.151
 1495SOL    HW2 4542   0.391   2.000   0.020
 1496SOL     OW 4543   3.113   3.824   1.775
 1496SOL    HW1 4544   3.070   3.848   1.693
 1496SOL    HW2 4545   3.050   3.768   1.820
 1497SOL     OW 4546   1.359   0.086   3.762
 1497SOL    HW1 4547   1.396   0.037   3.688
 1497SOL    HW2 4548   1.391   0.040   3.839
 1498SOL     OW 4549   3.693   2.939   3.123
 1498SOL    HW1 4550   3.745   2.858   3.126
 1498SOL    HW2 4551   3.641   2.930   3.043
 1499SOL     OW 4552   3.213   0.493   0.936
 1499SOL    HW1 4553   3.180   0.510   1.024
 1499SOL    HW2 4554   3.224   0.398   0.933
 1500SOL     OW 4555   3.868   0.563   0.843
 1500SOL    HW1 4556   3.917   0.583   0.763
 1500SOL    HW2 4557   3.850   0.469   0.838
 1501SOL     OW 4558   2.750   1.363   3.989
 1501SOL    HW1 4559   2.685   1.340   4.055
 1501SOL    HW2 4560   2.817   1.412   4.036
 1502SOL     OW 4561   2.802   1.336   4.898
 1502SOL    HW1 4562   2.881   1.307   4.945
 1502SOL    HW2 4563   2.807   1.432   4.901
 1503SOL     OW 4564   3.680   2.473   3.852
 1503SOL    HW1 4565   3.770   2.471   3.885
 1503SOL    HW2 4566   3.677   2.401   3.789
 1504SOL     OW 4567   0.177   0.106   3.946
 1504SOL    HW1 4568   0.127   0.053   3.883
 1504SOL    HW2 4569   0.133   0.090   4.030
 1505SOL     OW 4570   4.762   1.000   1.527
 1505SOL    HW1 4571   4.670   0.981   1.506
 1505SOL    HW2 4572   4.812   0.952   1.461
 1506SOL     OW 4573   4.246   0.696   3.886
 1506SOL    HW1 4574   4.313   0.667   3.948
 1506SOL    HW2 4575   4.240   0.790   3.900
 1507SOL     OW 4576   0.504   2.513   3.841
 1507SOL    HW1 4577   0.563   2.444   3.811
 1507SOL    HW2 4578   0.540   2.593   3.804
 1508SOL     OW 4579   2.640   4.203   4.016
 1508SOL    HW1 4580   2.682   4.229   3.933
 1508SOL    HW2 4581   2.552   4.240   4.011
 1509SOL     OW 4582   3.034   4.058   3.182
 1509SOL    HW1 4583   2.959   4.011   3.146
 1509SOL    HW2 4584   3.089   4.077   3.106
 1510SOL     OW 4585   0.938   4.946   2.562
 1510SOL    HW1 4586   0.904   4.938   2.472
 1510SOL    HW2 4587   0.919   4.862   2.602
 1511SOL     OW 4588   3.942   3.711   1.145
 1511SOL    HW1 4589   3.869   3.753   1.192
 1511SOL    HW2 4590   4.008   3.695   1.212
 1512SOL     OW 4591   2.012   1.420   4.393
 1512SOL    HW1 4592   1.963   1.427   4.475
 1512SOL    HW2 4593   2.096   1.463   4.411
 1513SOL     OW 4594   0.940   0.809   1.485
 1513SOL    HW1 4595   0.874   0.756   1.439
 1513SOL    HW2 4596   0.897   0.893   1.500
 1514SOL     OW 4597   4.643   1.078   4.575
 1514SOL    HW1 4598   4.562   1.063   4.623
 1514SOL    HW2 4599   4.628   1.160   4.527
 1515SOL     OW 4600   3.060   1.243   2.027
 1515SOL    HW1 4601   3.114   1.225   2.104
 1515SOL    HW2 4602   2.971   1.252   2.063
 1516SOL     OW 4603   4.645   4.535   2.334
 1516SOL    HW1 4604   4.658   4.461   2.393
 1516SOL    HW2 4605   4.644   4.612   2.391
 1517SOL     OW 4606   4.533   4.866   3.101
 1517SOL    HW1 4607   4.542   4.810   3.178
 1517SOL    HW2 4608   4.445   4.849   3.068
 1518SOL     OW 4609   0.061   4.061   3.201
 1518SOL    HW1 4610   0.092   4.102   3.282
 1518SOL    HW2 4611   4.943   4.047   3.216
 1519SOL     OW 4612   1.393   4.712   1.068
 1519SOL    HW1 4613   1.314   4.671   1.034
 1519SOL    HW2 4614   1.373   4.805   1.070
 1520SOL     OW 4615   2.899   1.548   1.031
 1520SOL    HW1 4616   2.847   1.468   1.019
 1520SOL    HW2 4617   2.989   1.517   1.041
 1521SOL     OW 4618   4.538   0.888   2.151
 1521SOL    HW1 4619   4.487   0.879   2.232
 1521SOL    HW2 4620   4.538   0.982   2.133
 1522SOL     OW 4621   4.966   1.826   4.745
 1522SOL    HW1 4622   4.948   1.761   4.813
 1522SOL    HW2 4623   0.028   1.900   4.793
 1523SOL     OW 4624   0.376   1.693   2.475
 1523SOL    HW1 4625   0.436   1.766   2.456
 1523SOL    HW2 4626   0.297   1.714   2.425
 1524SOL     OW 4627   2.677   1.156   2.414
 1524SOL    HW1 4628   2.712   1.078   2.370
 1524SOL    HW2 4629   2.594   1.172   2.370
 1525SOL     OW 4630   1.220   4.745   0.194
 1525SOL    HW1 4631   1.152   4.706   0.140
 1525SOL    HW2 4632   1.270   4.670   0.226
 1526SOL     OW 4633   4.050   1.509   2.179
 1526SOL    HW1 4634   4.118   1.457   2.136
 1526SOL    HW2 4635   3.969   1.482   2.136
 1527SOL     OW 4636   1.103   4.397   0.640
 1527SOL    HW1 4637   1.018   4.440   0.650
 1527SOL    HW2 4638   1.093   4.341   0.563
 1528SOL     OW 4639   1.074   4.145   0.039
 1528SOL    HW1 4640   1.078   4.185   4.929
 1528SOL    HW2 4641   1.113   4.058   0.028
 1529SOL     OW 4642   2.626   0.109   4.071
 1529SOL    HW1 4643   2.642   0.187   4.124
 1529SOL    HW2 4644   2.559   0.137   4.008
 1530SOL     OW 4645   1.422   1.582   1.180
 1530SOL    HW1 4646   1.517   1.587   1.171
 1530SOL    HW2 4647   1.396   1.668   1.213
 1531SOL     OW 4648   1.788   1.859   4.201
 1531SOL    HW1 4649   1.705   1.811   4.206
 1531SOL    HW2 4650   1.794   1.887   4.110
 1532SOL     OW 4651   2.208   4.538   1.719
 1532SOL    HW1 4652   2.172   4.583   1.795
 1532SOL    HW2 4653   2.145   4.468   1.700
 1533SOL     OW 4654   3.506   0.170   4.005
 1533SOL    HW1 4655   3.533   0.223   4.080
 1533SOL    HW2 4656   3.456   0.099   4.044
 1534SOL     OW 4657   0.287   0.693   3.175
 1534SOL    HW1 4658   0.319   0.752   3.108
 1534SOL    HW2 4659   0.191   0.702   3.172
 1535SOL     OW 4660   1.545   3.626   3.060
 1535SOL    HW1 4661   1.603   3.576   3.118
 1535SOL    HW2 4662   1.554   3.584   2.975
 1536SOL     OW 4663   2.700   4.285   4.275
 1536SOL    HW1 4664   2.666   4.235   4.200
 1536SOL    HW2 4665   2.795   4.271   4.272
 1537SOL     OW 4666   2.756   2.810   3.857
 1537SOL    HW1 4667   2.748   2.717   3.836
 1537SOL    HW2 4668   2.709   2.821   3.939
 1538SOL     OW 4669   4.796   0.832   4.530
 1538SOL    HW1 4670   4.853   0.830   4.453
 1538SOL    HW2 4671   4.759   0.920   4.531
 1539SOL     OW 4672   3.846   1.234   3.346
 1539SOL    HW1 4673   3.916   1.176   3.319
 1539SOL    HW2 4674   3.859   1.314   3.296
 1540SOL     OW 4675   0.891   4.805   1.521
 1540SOL    HW1 4676   0.857   4.893   1.502
 1540SOL    HW2 4677   0.985   4.811   1.505
 1541SOL     OW 4678   2.283   0.696   1.806
 1541SOL    HW1 4679   2.354   0.721   1.746
 1541SOL    HW2 4680   2.248   0.780   1.838
 1542SOL     OW 4681   3.867   2.201   1.102
 1542SOL    HW1 4682   3.777   2.174   1.121
 1542SOL    HW2 4683   3.858   2.289   1.066
 1543SOL     OW 4684   2.543   1.162   4.527
 1543SOL    HW1 4685   2.490   1.085   4.545
 1543SOL    HW2 4686   2.615   1.130   4.473
 1544SOL     OW 4687   0.271   0.074   4.399
 1544SOL    HW1 4688   0.333   0.012   4.438
 1544SOL    HW2 4689   0.323   0.151   4.378
 1545SOL     OW 4690   2.718   3.129   0.832
 1545SOL    HW1 4691   2.697   3.198   0.770
 1545SOL    HW2 4692   2.763   3.174   0.903
 1546SOL     OW 4693   0.641   0.565   1.997
 1546SOL    HW1 4694   0.552   0.536   2.018
 1546SOL    HW2 4695   0.629   0.640   1.939
 1547SOL     OW 4696   4.738   1.611   3.855
 1547SOL    HW1 4697   4.670   1.544   3.849
 1547SOL    HW2 4698   4.810   1.568   3.902
 1548SOL     OW 4699   0.522   0.161   4.746
 1548SOL    HW1 4700   0.549   0.199   4.829
 1548SOL    HW2 4701   0.506   0.069   4.765
 1549SOL     OW 4702   2.383   4.900   1.549
 1549SOL    HW1 4703   2.376   4.876   1.641
 1549SOL    HW2 4704   2.454   4.964   1.547
 1550SOL     OW 4705   2.066   2.652   4.668
 1550SOL    HW1 4706   2.138   2.701   4.628
 1550SOL    HW2 4707   1.995   2.717   4.676
 1551SOL     OW 4708   0.652   0.214   0.328
 1551SOL    HW1 4709   0.645   0.243   0.419
 1551SOL    HW2 4710   0.739   0.174   0.323
 1552SOL     OW 4711   4.476   2.226   3.616
 1552SOL    HW1 4712   4.447   2.160   3.679
 1552SOL    HW2 4713   4.556   2.262   3.653
 1553SOL     OW 4714   3.696   3.533   3.860
 1553SOL    HW1 4715   3.664   3.509   3.947
 1553SOL    HW2 4716   3.709   3.450   3.815
 1554SOL     OW 4717   0.940   4.536   4.129
 1554SOL    HW1 4718   1.025   4.578   4.117
 1554SOL    HW2 4719   0.884   4.604   4.166
 1555SOL     OW 4720   1.192   4.400   2.853
 1555SOL    HW1 4721   1.249   4.405   2.777
 1555SOL    HW2 4722   1.180   4.306   2.869
 1556SOL     OW 4723   4.087   2.163   2.226
 1556SOL    HW1 4724   4.010   2.107   2.214
 1556SOL    HW2 4725   4.113   2.188   2.138
 1557SOL     OW 4726   3.377   4.843   3.806
 1557SOL    HW1 4727   3.373   4.836   3.901
 1557SOL    HW2 4728   3.340   4.761   3.774
 1558SOL     OW 4729   0.117   3.646   2.763
 1558SOL    HW1 4730   0.058   3.718   2.784
 1558SOL    HW2 4731   0.081   3.571   2.811
 1559SOL     OW 4732   1.306   0.484   2.749
 1559SOL    HW1 4733   1.265   0.402   2.777
 1559SOL    HW2 4734   1.393   0.483   2.788
 1560SOL     OW 4735   3.135   1.092   4.472
 1560SOL    HW1 4736   3.161   1.022   4.532
 1560SOL    HW2 4737   3.120   1.047   4.388
 1561SOL     OW 4738   4.202   0.120   4.710
 1561SOL    HW1 4739   4.121   0.171   4.711
 1561SOL    HW2 4740   4.190   0.059   4.637
 1562SOL     OW 4741   4.401   3.792   1.171
 1562SOL    HW1 4742   4.380   3.852   1.099
 1562SOL    HW2 4743   4.393   3.705   1.133
 1563SOL     OW 4744   0.379   2.326   0.146
 1563SOL    HW1 4745   0.384   2.234   0.122
 1563SOL    HW2 4746   0.470   2.353   0.158
 1564SOL     OW 4747   3.412   1.079   0.103
 1564SOL    HW1 4748   3.481   1.012   0.098
 1564SOL    HW2 4749   3.341   1.044   0.049
 1565SOL     OW 4750   3.479   0.479   0.824
 1565SOL    HW1 4751   3.403   0.502   0.877
 1565SOL    HW2 4752   3.553   0.521   0.868
 1566SOL     OW 4753   2.866   0.414   1.477
 1566SOL    HW1 4754   2.886   0.346   1.413
 1566SOL    HW2 4755   2.852   0.493   1.425
 1567SOL     OW 4756   4.394   3.234   1.815
 1567SOL    HW1 4757   4.464   3.298   1.800
 1567SOL    HW2 4758   4.439   3.151   1.828
 1568SOL     OW 4759   1.592   3.460   3.967
 1568SOL    HW1 4760   1.659   3.528   3.956
 1568SOL    HW2 4761   1.531   3.497   4.030
 1569SOL     OW 4762   1.165   4.568   1.051
 1569SOL    HW1 4763   1.075   4.574   1.021
 1569SOL    HW2 4764   1.159   4.532   1.139
 1570SOL     OW 4765   4.238   2.319   3.758
 1570SOL    HW1 4766   4.317   2.301   3.810
 1570SOL    HW2 4767   4.271   2.345   3.672
 1571SOL     OW 4768   1.711   0.375   3.157
 1571SOL    HW1 4769   1.797   0.412   3.140
 1571SOL    HW2 4770   1.695   0.391   3.250
 1572SOL     OW 4771   4.965   1.540   2.453
 1572SOL    HW1 4772   0.061   1.499   2.406
 1572SOL    HW2 4773   4.967   1.632   2.427
 1573SOL     OW 4774   1.015   1.990   3.927
 1573SOL    HW1 4775   1.054   2.075   3.945
 1573SOL    HW2 4776   1.049   1.933   3.996
 1574SOL     OW 4777   3.052   1.101   3.974
 1574SOL    HW1 4778   3.074   1.194   3.987
 1574SOL    HW2 4779   3.044   1.092   3.879
 1575SOL     OW 4780   0.862   3.271   1.912
 1575SOL    HW1 4781   0.882   3.318   1.831
 1575SOL    HW2 4782   0.939   3.284   1.967
 1576SOL     OW 4783   4.026   1.008   2.334
 1576SOL    HW1 4784   4.095   0.993   2.399
 1576SOL    HW2 4785   3.947   0.975   2.376
 1577SOL     OW 4786   0.830   1.354   4.498
 1577SOL    HW1 4787   0.862   1.387   4.414
 1577SOL    HW2 4788   0.734   1.359   4.491
 1578SOL     OW 4789   2.941   0.020   0.879
 1578SOL    HW1 4790   2.993   0.047   0.803
 1578SOL    HW2 4791   2.889   4.923   0.848
 1579SOL     OW 4792   0.518   4.487   0.134
 1579SOL    HW1 4793   0.471   4.536   0.202
 1579SOL    HW2 4794   0.591   4.543   0.110
 1580SOL     OW 4795   0.357   1.091   0.835
 1580SOL    HW1 4796   0.407   1.081   0.754
 1580SOL    HW2 4797   0.409   1.152   0.888
 1581SOL     OW 4798   4.689   2.638   3.301
 1581SOL    HW1 4799   4.718   2.717   3.254
 1581SOL    HW2 4800   4.769   2.602   3.340
 1582SOL     OW 4801   4.260   0.910   4.381
 1582SOL    HW1 4802   4.267   0.844   4.312
 1582SOL    HW2 4803   4.327   0.886   4.445
 1583SOL     OW 4804   2.641   2.444   3.487
 1583SOL    HW1 4805   2.723   2.465   3.529
 1583SOL    HW2 4806   2.661   2.445   3.393
 1584SOL     OW 4807   2.861   0.172   0.625
 1584SOL    HW1 4808   2.792   0.168   0.691
 1584SOL    HW2 4809   2.814   0.158   0.542
 1585SOL     OW 4810   1.345   2.091   0.104
 1585SOL    HW1 4811   1.285   2.166   0.102
 1585SOL    HW2 4812   1.328   2.044   0.023
 1586SOL     OW 4813   4.125   1.305   2.588
 1586SOL    HW1 4814   4.170   1.338   2.666
 1586SOL    HW2 4815   4.046   1.262   2.621
 1587SOL     OW 4816   3.789   4.239   2.046
 1587SOL    HW1 4817   3.765   4.173   1.981
 1587SOL    HW2 4818   3.885   4.239   2.046
 1588SOL     OW 4819   1.166   2.583   1.214
 1588SOL    HW1 4820   1.147   2.595   1.121
 1588SOL    HW2 4821   1.165   2.671   1.250
 1589SOL     OW 4822   4.212   1.349   3.877
 1589SOL    HW1 4823   4.142   1.411   3.859
 1589SOL    HW2 4824   4.175   1.263   3.856
 1590SOL     OW 4825   0.750   3.952   3.742
 1590SOL    HW1 4826   0.825   3.917   3.791
 1590SOL    HW2 4827   0.781   3.959   3.652
 1591SOL     OW 4828   4.329   2.768   0.002
 1591SOL    HW1 4829   4.256   2.816   4.939
 1591SOL    HW2 4830   4.341   2.808   0.088
 1592SOL     OW 4831   2.295   4.709   4.936
 1592SOL    HW1 4832   2.274   4.666   0.043
 1592SOL    HW2 4833   2.382   4.679   4.914
 1593SOL     OW 4834   3.344   1.177   0.914
 1593SOL    HW1 4835   3.270   1.237   0.926
 1593SOL    HW2 4836   3.395   1.215   0.843
 1594SOL     OW 4837   2.859   2.048   2.361
 1594SOL    HW1 4838   2.873   1.994   2.283
 1594SOL    HW2 4839   2.821   2.129   2.327
 1595SOL     OW 4840   4.794   1.703   0.778
 1595SOL    HW1 4841   4.846   1.633   0.816
 1595SOL    HW2 4842   4.857   1.773   0.760
 1596SOL     OW 4843   2.849   1.605   4.914
 1596SOL    HW1 4844   2.790   1.676   4.889
 1596SOL    HW2 4845   2.936   1.646   4.914
 1597SOL     OW 4846   4.168   2.783   3.424
 1597SOL    HW1 4847   4.109   2.715   3.457
 1597SOL    HW2 4848   4.226   2.802   3.498
 1598SOL     OW 4849   2.674   4.090   3.193
 1598SOL    HW1 4850   2.665   4.056   3.282
 1598SOL    HW2 4851   2.628   4.174   3.194
 1599SOL     OW 4852   2.965   4.260   4.367
 1599SOL    HW1 4853   2.964   4.169   4.398
 1599SOL    HW2 4854   3.054   4.290   4.383
 1600SOL     OW 4855   1.440   2.634   2.079
 1600SOL    HW1 4856   1.382   2.558   2.079
 1600SOL    HW2 4857   1.501   2.617   2.007
 1601SOL     OW 4858   0.651   0.241   2.347
 1601SOL    HW1 4859   0.691   0.303   2.286
 1601SOL    HW2 4860   0.704   0.248   2.427
 1602SOL     OW 4861   0.113   0.100   2.052
 1602SOL    HW1 4862   0.077   0.059   2.131
 1602SOL    HW2 4863   0.125   0.191   2.076
 1603SOL     OW 4864   3.589   1.834   4.430
 1603SOL    HW1 4865   3.657   1.839   4.362
 1603SOL    HW2 4866   3.537   1.757   4.406
 1604SOL     OW 4867   3.512   2.520   3.418
 1604SOL    HW1 4868   3.485   2.555   3.333
 1604SOL    HW2 4869   3.606   2.508   3.411
 1605SOL     OW 4870   2.448   0.323   1.045
 1605SOL    HW1 4871   2.372   0.378   1.028
 1605SOL    HW2 4872   2.488   0.361   1.123
 1606SOL     OW 4873   1.719   4.610   2.096
 1606SOL    HW1 4874   1.687   4.701   2.097
 1606SOL    HW2 4875   1.758   4.600   2.009
 1607SOL     OW 4876   1.244   0.299   4.426
 1607SOL    HW1 4877   1.223   0.261   4.341
 1607SOL    HW2 4878   1.277   0.225   4.478
 1608SOL     OW 4879   2.693   0.646   2.081
 1608SOL    HW1 4880   2.664   0.555   2.079
 1608SOL    HW2 4881   2.788   0.641   2.075
 1609SOL     OW 4882   1.391   2.904   0.269
 1609SOL    HW1 4883   1.407   2.832   0.207
 1609SOL    HW2 4884   1.477   2.937   0.291
 1610SOL     OW 4885   3.196   3.053   3.145
 1610SOL    HW1 4886   3.178   3.000   3.222
 1610SOL    HW2 4887   3.173   3.143   3.171
 1611SOL     OW 4888   1.947   2.326   4.404
 1611SOL    HW1 4889   1.983   2.267   4.470
 1611SOL    HW2 4890   1.868   2.282   4.373
 1612SOL     OW 4891   1.297   2.673   4.578
 1612SOL    HW1 4892   1.310   2.586   4.542
 1612SOL    HW2 4893   1.312   2.662   4.672
 1613SOL     OW 4894   3.912   0.006   4.051
 1613SOL    HW1 4895   3.958   4.898   4.052
 1613SOL    HW2 4896   3.982   0.071   4.056
 1614SOL     OW 4897   4.795   0.079   4.729
 1614SOL    HW1 4898   4.869   0.022   4.709
 1614SOL    HW2 4899   4.719   0.030   4.698
 1615SOL     OW 4900   3.333   4.930   4.071
 1615SOL    HW1 4901   3.371   4.862   4.127
 1615SOL    HW2 4902   3.240   4.909   4.069
 1616SOL     OW 4903   0.469   4.022   1.731
 1616SOL    HW1 4904   0.484   4.018   1.826
 1616SOL    HW2 4905   0.493   4.112   1.707
 1617SOL     OW 4906   2.794   2.612   2.476
 1617SOL    HW1 4907   2.722   2.550   2.466
 1617SOL    HW2 4908   2.870   2.559   2.497
 1618SOL     OW 4909   3.228   3.755   2.874
 1618SOL    HW1 4910   3.133   3.746   2.877
 1618SOL    HW2 4911   3.243   3.842   2.836
 1619SOL     OW 4912   0.830   4.233   1.571
 1619SOL    HW1 4913   0.874   4.316   1.590
 1619SOL    HW2 4914   0.885   4.191   1.505
 1620SOL     OW 4915   2.460   0.934   3.127
 1620SOL    HW1 4916   2.453   0.898   3.038
 1620SOL    HW2 4917   2.453   1.029   3.115
 1621SOL     OW 4918   4.694   4.129   0.051
 1621SOL    HW1 4919   4.764   4.193   0.046
 1621SOL    HW2 4920   4.622   4.168   0.001
 1622SOL     OW 4921   0.642   0.320   4.068
 1622SOL    HW1 4922   0.657   0.251   4.133
 1622SOL    HW2 4923   0.548   0.315   4.049
 1623SOL     OW 4924   1.360   2.785   0.894
 1623SOL    HW1 4925   1.379   2.694   0.872
 1623SOL    HW2 4926   1.348   2.828   0.809
 1624SOL     OW 4927   2.960   2.409   2.530
 1624SOL    HW1 4928   2.971   2.374   2.442
 1624SOL    HW2 4929   3.038   2.380   2.577
 1625SOL     OW 4930   4.658   3.157   1.266
 1625SOL    HW1 4931   4.724   3.087   1.264
 1625SOL    HW2 4932   4.641   3.171   1.359
 1626SOL     OW 4933   0.503   1.138   2.745
 1626SOL    HW1 4934   0.442   1.141   2.671
 1626SOL    HW2 4935   0.590   1.142   2.705
 1627SOL     OW 4936   4.637   3.716   1.298
 1627SOL    HW1 4937   4.710   3.738   1.240
 1627SOL    HW2 4938   4.560   3.747   1.251
 1628SOL     OW 4939   1.108   3.594   1.280
 1628SOL    HW1 4940   1.066   3.574   1.196
 1628SOL    HW2 4941   1.130   3.687   1.275
 1629SOL     OW 4942   0.460   0.949   3.446
 1629SOL    HW1 4943   0.497   0.948   3.534
 1629SOL    HW2 4944   0.458   0.857   3.420
 1630SOL     OW 4945   1.374   4.204   0.305
 1630SOL    HW1 4946   1.313   4.162   0.365
 1630SOL    HW2 4947   1.358   4.161   0.221
 1631SOL     OW 4948   3.981   1.074   4.098
 1631SOL    HW1 4949   3.893   1.042   4.118
 1631SOL    HW2 4950   3.990   1.153   4.151
 1632SOL     OW 4951   1.207   1.858   3.164
 1632SOL    HW1 4952   1.201   1.763   3.152
 1632SOL    HW2 4953   1.154   1.895   3.093
 1633SOL     OW 4954   2.760   2.276   2.635
 1633SOL    HW1 4955   2.831   2.322   2.591
 1633SOL    HW2 4956   2.767   2.302   2.726
 1634SOL     OW 4957   3.864   2.789   1.402
 1634SOL    HW1 4958   3.849   2.805   1.495
 1634SOL    HW2 4959   3.947   2.833   1.383
 1635SOL     OW 4960   3.135   1.700   1.664
 1635SOL    HW1 4961   3.056   1.660   1.628
 1635SOL    HW2 4962   3.176   1.745   1.590
 1636SOL     OW 4963   1.001   1.087   0.993
 1636SOL    HW1 4964   1.049   1.149   0.938
 1636SOL    HW2 4965   1.034   1.102   1.081
 1637SOL     OW 4966   3.115   3.380   4.339
 1637SOL    HW1 4967   3.184   3.405   4.401
 1637SOL    HW2 4968   3.127   3.439   4.265
 1638SOL     OW 4969   0.068   0.945   4.464
 1638SOL    HW1 4970   0.036   0.989   4.542
 1638SOL    HW2 4971   0.160   0.925   4.483
 1639SOL     OW 4972   1.621   1.395   4.547
 1639SOL    HW1 4973   1.632   1.354   4.633
 1639SOL    HW2 4974   1.601   1.322   4.488
 1640SOL     OW 4975   1.369   1.878   2.792
 1640SOL    HW1 4976   1.449   1.900   2.745
 1640SOL    HW2 4977   1.381   1.787   2.818
 1641SOL     OW 4978   4.952   1.009   3.232
 1641SOL    HW1 4979   0.033   1.038   3.302
 1641SOL    HW2 4980   4.974   1.065   3.158
 1642SOL     OW 4981   0.556   1.425   3.936
 1642SOL    HW1 4982   0.622   1.434   4.005
 1642SOL    HW2 4983   0.596   1.366   3.872
 1643SOL     OW 4984   4.698   1.276   4.345
 1643SOL    HW1 4985   4.765   1.325   4.392
 1643SOL    HW2 4986   4.693   1.320   4.259
 1644SOL     OW 4987   1.844   1.229   1.080
 1644SOL    HW1 4988   1.780   1.194   1.019
 1644SOL    HW2 4989   1.871   1.313   1.042
 1645SOL     OW 4990   0.301   4.575   3.424
 1645SOL    HW1 4991   0.323   4.667   3.435
 1645SOL    HW2 4992   0.245   4.554   3.498
 1646SOL     OW 4993   0.390   1.389   2.221
 1646SOL    HW1 4994   0.318   1.330   2.202
 1646SOL    HW2 4995   0.350   1.476   2.221
 1647SOL     OW 4996   3.253   1.317   2.696
 1647SOL    HW1 4997   3.176   1.306   2.639
 1647SOL    HW2 4998   3.228   1.388   2.755
 1648SOL     OW 4999   2.133   1.410   0.253
 1648SOL    HW1 5000   2.156   1.397   0.161
 1648SOL    HW2 5001   2.213   1.389   0.301
 1649SOL     OW 5002   4.758   3.020   3.535
 1649SOL    HW1 5003   4.761   3.054   3.445
 1649SOL    HW2 5004   4.734   3.096   3.588
 1650SOL     OW 5005   3.718   4.492   4.555
 1650SOL    HW1 5006   3.705   4.425   4.621
 1650SOL    HW2 5007   3.657   4.562   4.578
 1651SOL     OW 5008   2.999   4.136   2.375
 1651SOL    HW1 5009   3.022   4.045   2.393
 1651SOL    HW2 5010   2.908   4.144   2.402
 1652SOL     OW 5011   1.184   1.218   4.526
 1652SOL    HW1 5012   1.255   1.158   4.504
 1652SOL    HW2 5013   1.118   1.162   4.567
 1653SOL     OW 5014   3.650   4.032   1.397
 1653SOL    HW1 5015   3.559   4.062   1.403
 1653SOL    HW2 5016   3.682   4.034   1.487
 1654SOL     OW 5017   0.196   2.228   0.744
 1654SOL    HW1 5018   0.117   2.186   0.779
 1654SOL    HW2 5019   0.206   2.189   0.657
 1655SOL     OW 5020   3.200   3.730   3.761
 1655SOL    HW1 5021   3.262   3.803   3.759
 1655SOL    HW2 5022   3.212   3.685   3.677
 1656SOL     OW 5023   0.792   4.341   2.946
 1656SOL    HW1 5024   0.762   4.274   2.884
 1656SOL    HW2 5025   0.778   4.424   2.900
 1657SOL     OW 5026   1.259   2.504   3.312
 1657SOL    HW1 5027   1.287   2.438   3.248
 1657SOL    HW2 5028   1.283   2.467   3.397
 1658SOL     OW 5029   0.764   4.570   1.621
 1658SOL    HW1 5030   0.770   4.659   1.586
 1658SOL    HW2 5031   0.852   4.534   1.611
 1659SOL     OW 5032   3.151   4.532   0.771
 1659SOL    HW1 5033   3.143   4.604   0.835
 1659SOL    HW2 5034   3.079   4.546   0.710
 1660SOL     OW 5035   2.502   1.567   4.804
 1660SOL    HW1 5036   2.552   1.491   4.776
 1660SOL    HW2 5037   2.543   1.641   4.759
 1661SOL     OW 5038   4.297   2.691   1.643
 1661SOL    HW1 5039   4.392   2.701   1.646
 1661SOL    HW2 5040   4.280   2.610   1.691
 1662SOL     OW 5041   0.409   2.769   4.943
 1662SOL    HW1 5042   0.464   2.729   4.876
 1662SOL    HW2 5043   0.355   2.832   4.896
 1663SOL     OW 5044   0.869   4.958   2.007
 1663SOL    HW1 5045   0.923   0.044   2.055
 1663SOL    HW2 5046   0.918   4.941   1.926
 1664SOL     OW 5047   1.043   0.796   0.518
 1664SOL    HW1 5048   1.119   0.743   0.493
 1664SOL    HW2 5049   1.006   0.751   0.594
 1665SOL     OW 5050   4.083   3.783   2.797
 1665SOL    HW1 5051   4.055   3.817   2.712
 1665SOL    HW2 5052   4.098   3.861   2.850
 1666SOL     OW 5053   3.729   3.516   1.228
 1666SOL    HW1 5054   3.646   3.539   1.187
 1666SOL    HW2 5055   3.735   3.575   1.304
 1667SOL     OW 5056   1.512   0.271   1.346
 1667SOL    HW1 5057   1.440   0.268   1.409
 1667SOL    HW2 5058   1.515   0.182   1.309
 1668SOL     OW 5059   1.623   4.753   0.902
 1668SOL    HW1 5060   1.549   4.731   0.958
 1668SOL    HW2 5061   1.584   4.771   0.816
 1669SOL     OW 5062   3.954   3.998   0.439
 1669SOL    HW1 5063   4.045   4.024   0.428
 1669SOL    HW2 5064   3.956   3.934   0.511
 1670SOL     OW 5065   4.490   3.574   3.439
 1670SOL    HW1 5066   4.447   3.594   3.522
 1670SOL    HW2 5067   4.447   3.495   3.407
 1671SOL     OW 5068   3.254   2.056   3.808
 1671SOL    HW1 5069   3.234   1.970   3.844
 1671SOL    HW2 5070   3.284   2.038   3.718
 1672SOL     OW 5071   4.003   2.796   2.154
 1672SOL    HW1 5072   4.040   2.718   2.115
 1672SOL    HW2 5073   3.972   2.848   2.080
 1673SOL     OW 5074   3.004   0.501   0.420
 1673SOL    HW1 5075   3.008   0.458   0.335
 1673SOL    HW2 5076   2.946   0.445   0.473
 1674SOL     OW 5077   0.235   1.555   0.166
 1674SOL    HW1 5078   0.257   1.559   0.073
 1674SOL    HW2 5079   0.227   1.462   0.185
 1675SOL     OW 5080   1.540   3.431   0.042
 1675SOL    HW1 5081   1.536   3.336   0.047
 1675SOL    HW2 5082   1.576   3.449   4.932
 1676SOL     OW 5083   1.094   1.448   4.072
 1676SOL    HW1 5084   1.145   1.445   4.153
 1676SOL    HW2 5085   1.156   1.425   4.004
 1677SOL     OW 5086   0.370   1.468   2.909
 1677SOL    HW1 5087   0.434   1.397   2.910
 1677SOL    HW2 5088   0.346   1.477   2.817
 1678SOL     OW 5089   4.144   2.621   2.026
 1678SOL    HW1 5090   4.233   2.648   2.004
 1678SOL    HW2 5091   4.125   2.550   1.966
 1679SOL     OW 5092   2.059   2.240   4.638
 1679SOL    HW1 5093   2.103   2.317   4.675
 1679SOL    HW2 5094   2.018   2.198   4.713
 1680SOL     OW 5095   0.498   2.774   2.030
 1680SOL    HW1 5096   0.438   2.754   1.958
 1680SOL    HW2 5097   0.538   2.690   2.051
 1681SOL     OW 5098   1.241   0.503   3.707
 1681SOL    HW1 5099   1.320   0.470   3.750
 1681SOL    HW2 5100   1.180   0.428   3.709
 1682SOL     OW 5101   3.412   4.666   1.694
 1682SOL    HW1 5102   3.364   4.747   1.678
 1682SOL    HW2 5103   3.345   4.603   1.722
 1683SOL     OW 5104   0.626   3.774   3.982
 1683SOL    HW1 5105   0.652   3.769   3.890
 1683SOL    HW2 5106   0.621   3.683   4.011
 1684SOL     OW 5107   4.054   3.629   1.780
 1684SOL    HW1 5108   4.077   3.544   1.817
 1684SOL    HW2 5109   4.065   3.690   1.853
 1685SOL     OW 5110   2.612   3.955   2.925
 1685SOL    HW1 5111   2.656   3.977   2.843
 1685SOL    HW2 5112   2.658   4.008   2.991
 1686SOL     OW 5113   1.458   4.419   0.117
 1686SOL    HW1 5114   1.416   4.353   0.173
 1686SOL    HW2 5115   1.521   4.369   0.064
 1687SOL     OW 5116   0.267   0.663   0.609
 1687SOL    HW1 5117   0.219   0.651   0.691
 1687SOL    HW2 5118   0.351   0.619   0.624
 1688SOL     OW 5119   1.997   0.952   2.807
 1688SOL    HW1 5120   2.043   0.955   2.724
 1688SOL    HW2 5121   1.905   0.944   2.783
 1689SOL     OW 5122   4.049   4.678   2.990
 1689SOL    HW1 5123   4.056   4.584   3.011
 1689SOL    HW2 5124   3.961   4.688   2.954
 1690SOL     OW 5125   2.960   1.318   3.091
 1690SOL    HW1 5126   3.049   1.282   3.091
 1690SOL    HW2 5127   2.917   1.273   3.019
 1691SOL     OW 5128   0.054   3.919   2.458
 1691SOL    HW1 5129   0.021   3.869   2.384
 1691SOL    HW2 5130   0.006   3.884   2.533
 1692SOL     OW 5131   0.541   0.747   4.883
 1692SOL    HW1 5132   0.564   0.702   4.801
 1692SOL    HW2 5133   0.448   0.765   4.875
 1693SOL     OW 5134   4.852   4.303   2.663
 1693SOL    HW1 5135   4.800   4.280   2.740
 1693SOL    HW2 5136   4.915   4.368   2.695
 1694SOL     OW 5137   3.679   1.556   4.250
 1694SOL    HW1 5138   3.660   1.635   4.199
 1694SOL    HW2 5139   3.595   1.510   4.256
 1695SOL     OW 5140   3.464   3.933   3.312
 1695SOL    HW1 5141   3.511   3.903   3.389
 1695SOL    HW2 5142   3.419   3.856   3.279
 1696SOL     OW 5143   0.329   1.884   0.868
 1696SOL    HW1 5144   0.386   1.818   0.905
 1696SOL    HW2 5145   0.358   1.893   0.777
 1697SOL     OW 5146   1.544   1.662   2.495
 1697SOL    HW1 5147   1.513   1.675   2.584
 1697SOL    HW2 5148   1.638   1.679   2.500
 1698SOL     OW 5149   0.788   1.476   3.301
 1698SOL    HW1 5150   0.808   1.569   3.306
 1698SOL    HW2 5151   0.692   1.472   3.310
 1699SOL     OW 5152   2.128   3.315   3.756
 1699SOL    HW1 5153   2.078   3.269   3.689
 1699SOL    HW2 5154   2.064   3.336   3.824
 1700SOL     OW 5155   1.685   2.744   4.118
 1700SOL    HW1 5156   1.662   2.662   4.075
 1700SOL    HW2 5157   1.751   2.783   4.060
 1701SOL     OW 5158   0.030   0.356   0.899
 1701SOL    HW1 5159   0.068   0.311   0.974
 1701SOL    HW2 5160   0.063   0.309   0.822
 1702SOL     OW 5161   2.295   1.126   0.149
 1702SOL    HW1 5162   2.319   1.193   0.214
 1702SOL    HW2 5163   2.284   1.175   0.068
 1703SOL     OW 5164   1.341   4.327   2.590
 1703SOL    HW1 5165   1.392   4.280   2.525
 1703SOL    HW2 5166   1.274   4.374   2.539
 1704SOL     OW 5167   3.354   3.367   4.473
 1704SOL    HW1 5168   3.291   3.359   4.544
 1704SOL    HW2 5169   3.432   3.322   4.506
 1705SOL     OW 5170   2.082   2.033   4.403
 1705SOL    HW1 5171   2.109   1.972   4.336
 1705SOL    HW2 5172   2.079   2.118   4.359
 1706SOL     OW 5173   2.953   0.150   3.010
 1706SOL    HW1 5174   2.879   0.160   3.069
 1706SOL    HW2 5175   3.021   0.108   3.063
 1707SOL     OW 5176   3.103   4.265   1.631
 1707SOL    HW1 5177   3.050   4.190   1.660
 1707SOL    HW2 5178   3.041   4.321   1.584
 1708SOL     OW 5179   0.281   4.099   2.540
 1708SOL    HW1 5180   0.229   4.070   2.465
 1708SOL    HW2 5181   0.371   4.102   2.506
 1709SOL     OW 5182   0.492   3.773   4.227
 1709SOL    HW1 5183   0.529   3.688   4.251
 1709SOL    HW2 5184   0.546   3.802   4.153
 1710SOL     OW 5185   0.750   4.338   3.496
 1710SOL    HW1 5186   0.802   4.342   3.416
 1710SOL    HW2 5187   0.660   4.325   3.466
 1711SOL     OW 5188   4.682   4.099   0.752
 1711SOL    HW1 5189   4.616   4.108   0.822
 1711SOL    HW2 5190   4.765   4.119   0.795
 1712SOL     OW 5191   2.367   3.254   0.268
 1712SOL    HW1 5192   2.435   3.238   0.334
 1712SOL    HW2 5193   2.415   3.275   0.188
 1713SOL     OW 5194   0.504   2.513   1.822
 1713SOL    HW1 5195   0.463   2.549   1.744
 1713SOL    HW2 5196   0.594   2.493   1.796
 1714SOL     OW 5197   1.972   3.676   2.901
 1714SOL    HW1 5198   2.058   3.635   2.904
 1714SOL    HW2 5199   1.956   3.708   2.990
 1715SOL     OW 5200   0.731   1.074   0.023
 1715SOL    HW1 5201   0.647   1.036   0.048
 1715SOL    HW2 5202   0.784   0.999   4.970
 1716SOL     OW 5203   0.227   2.410   3.220
 1716SOL    HW1 5204   0.316   2.377   3.214
 1716SOL    HW2 5205   0.175   2.335   3.248
 1717SOL     OW 5206   2.796   0.112   4.365
 1717SOL    HW1 5207   2.765   0.028   4.398
 1717SOL    HW2 5208   2.738   0.177   4.405
 1718SOL     OW 5209   1.253   3.007   3.355
 1718SOL    HW1 5210   1.345   3.034   3.353
 1718SOL    HW2 5211   1.254   2.919   3.392
 1719SOL     OW 5212   2.005   3.133   2.810
 1719SOL    HW1 5213   2.047   3.180   2.738
 1719SOL    HW2 5214   2.023   3.185   2.888
 1720SOL     OW 5215   3.745   1.311   4.154
 1720SOL    HW1 5216   3.741   1.391   4.206
 1720SOL    HW2 5217   3.839   1.292   4.145
 1721SOL     OW 5218   2.569   4.792   1.053
 1721SOL    HW1 5219   2.540   4.742   1.129
 1721SOL    HW2 5220   2.599   4.875   1.090
 1722SOL     OW 5221   0.306   4.270   2.216
 1722SOL    HW1 5222   0.347   4.184   2.203
 1722SOL    HW2 5223   0.257   4.261   2.297
 1723SOL     OW 5224   0.224   3.260   4.570
 1723SOL    HW1 5225   0.235   3.352   4.594
 1723SOL    HW2 5226   0.310   3.232   4.541
 1724SOL     OW 5227   0.721   0.549   3.157
 1724SOL    HW1 5228   0.630   0.522   3.161
 1724SOL    HW2 5229   0.726   0.625   3.215
 1725SOL     OW 5230   0.835   4.137   2.430
 1725SOL    HW1 5231   0.811   4.230   2.424
 1725SOL    HW2 5232   0.930   4.136   2.423
 1726SOL     OW 5233   2.039   1.159   4.598
 1726SOL    HW1 5234   1.994   1.119   4.673
 1726SOL    HW2 5235   2.009   1.250   4.598
 1727SOL     OW 5236   4.800   0.541   1.100
 1727SOL    HW1 5237   4.843   0.480   1.040
 1727SOL    HW2 5238   4.858   0.544   1.176
 1728SOL     OW 5239   4.754   3.678   3.777
 1728SOL    HW1 5240   4.847   3.702   3.784
 1728SOL    HW2 5241   4.748   3.628   3.696
 1729SOL     OW 5242   3.692   1.404   1.056
 1729SOL    HW1 5243   3.717   1.384   1.146
 1729SOL    HW2 5244   3.764   1.456   1.022
 1730SOL     OW 5245   2.428   1.933   2.642
 1730SOL    HW1 5246   2.477   2.009   2.611
 1730SOL    HW2 5247   2.479   1.858   2.611
 1731SOL     OW 5248   3.461   1.499   2.081
 1731SOL    HW1 5249   3.481   1.419   2.130
 1731SOL    HW2 5250   3.366   1.496   2.068
 1732SOL     OW 5251   3.810   3.994   3.635
 1732SOL    HW1 5252   3.761   3.948   3.704
 1732SOL    HW2 5253   3.826   3.927   3.569
 1733SOL     OW 5254   4.674   1.780   0.293
 1733SOL    HW1 5255   4.675   1.809   0.202
 1733SOL    HW2 5256   4.608   1.835   0.336
 1734SOL     OW 5257   4.248   3.354   1.282
 1734SOL    HW1 5258   4.340   3.381   1.287
 1734SOL    HW2 5259   4.250   3.278   1.223
 1735SOL     OW 5260   2.760   3.890   1.896
 1735SOL    HW1 5261   2.802   3.860   1.977
 1735SOL    HW2 5262   2.666   3.887   1.915
 1736SOL     OW 5263   3.761   0.238   2.498
 1736SOL    HW1 5264   3.800   0.151   2.501
 1736SOL    HW2 5265   3.725   0.246   2.410
 1737SOL     OW 5266   0.099   4.441   2.821
 1737SOL    HW1 5267   0.119   4.534   2.834
 1737SOL    HW2 5268   0.041   4.419   2.894
 1738SOL     OW 5269   4.020   3.507   0.689
 1738SOL    HW1 5270   3.977   3.522   0.773
 1738SOL    HW2 5271   3.962   3.550   0.625
 1739SOL     OW 5272   1.006   2.259   3.360
 1739SOL    HW1 5273   1.075   2.195   3.342
 1739SOL    HW2 5274   0.926   2.218   3.328
 1740SOL     OW 5275   2.395   0.356   2.531
 1740SOL    HW1 5276   2.385   0.384   2.622
 1740SOL    HW2 5277   2.379   0.261   2.533
 1741SOL     OW 5278   4.682   2.248   2.812
 1741SOL    HW1 5279   4.748   2.317   2.810
 1741SOL    HW2 5280   4.602   2.292   2.839
 1742SOL     OW 5281   0.164   2.771   1.510
 1742SOL    HW1 5282   0.192   2.818   1.431
 1742SOL    HW2 5283   0.083   2.726   1.484
 1743SOL     OW 5284   3.698   3.102   3.783
 1743SOL    HW1 5285   3.623   3.079   3.838
 1743SOL    HW2 5286   3.675   3.068   3.696
 1744SOL     OW 5287   1.566   3.535   2.438
 1744SOL    HW1 5288   1.521   3.606   2.484
 1744SOL    HW2 5289   1.562   3.560   2.346
 1745SOL     OW 5290   4.072   3.924   2.327
 1745SOL    HW1 5291   3.992   3.955   2.284
 1745SOL    HW2 5292   4.143   3.974   2.286
 1746SOL     OW 5293   3.257   1.921   0.243
 1746SOL    HW1 5294   3.214   2.001   0.212
 1746SOL    HW2 5295   3.214   1.851   0.196
 1747SOL     OW 5296   2.834   0.803   1.476
 1747SOL    HW1 5297   2.919   0.832   1.443
 1747SOL    HW2 5298   2.844   0.802   1.571
 1748SOL     OW 5299   4.898   3.577   0.902
 1748SOL    HW1 5300   4.927   3.639   0.969
 1748SOL    HW2 5301   4.878   3.497   0.950
 1749SOL     OW 5302   2.503   0.067   2.086
 1749SOL    HW1 5303   2.417   0.103   2.110
 1749SOL    HW2 5304   2.532   0.021   2.164
 1750SOL     OW 5305   4.140   0.877   0.004
 1750SOL    HW1 5306   4.139   0.855   4.887
 1750SOL    HW2 5307   4.229   0.909   0.020
 1751SOL     OW 5308   2.873   1.567   0.329
 1751SOL    HW1 5309   2.908   1.480   0.348
 1751SOL    HW2 5310   2.810   1.583   0.399
 1752SOL     OW 5311   3.768   4.672   2.922
 1752SOL    HW1 5312   3.722   4.751   2.948
 1752SOL    HW2 5313   3.789   4.628   3.004
 1753SOL     OW 5314   2.398   1.600   2.688
 1753SOL    HW1 5315   2.331   1.540   2.722
 1753SOL    HW2 5316   2.356   1.644   2.614
 1754SOL     OW 5317   0.835   4.887   3.863
 1754SOL    HW1 5318   0.905   4.930   3.911
 1754SOL    HW2 5319   0.874   4.807   3.829
 1755SOL     OW 5320   0.163   4.434   2.066
 1755SOL    HW1 5321   0.197   4.516   2.103
 1755SOL    HW2 5322   0.222   4.366   2.100
 1756SOL     OW 5323   1.907   4.214   1.660
 1756SOL    HW1 5324   1.872   4.294   1.700
 1756SOL    HW2 5325   1.831   4.157   1.649
 1757SOL     OW 5326   1.467   0.396   1.693
 1757SOL    HW1 5327   1.426   0.321   1.650
 1757SOL    HW2 5328   1.419   0.406   1.775
 1758SOL     OW 5329   3.029   3.210   3.953
 1758SOL    HW1 5330   2.953   3.181   3.902
 1758SOL    HW2 5331   3.041   3.302   3.928
 1759SOL     OW 5332   0.681   0.970   4.377
 1759SOL    HW1 5333   0.650   1.008   4.295
 1759SOL    HW2 5334   0.680   0.876   4.361
 1760SOL     OW 5335   1.948   1.158   1.918
 1760SOL    HW1 5336   1.926   1.243   1.955
 1760SOL    HW2 5337   1.975   1.178   1.828
 1761SOL     OW 5338   2.226   0.458   0.988
 1761SOL    HW1 5339   2.161   0.402   1.030
 1761SOL    HW2 5340   2.208   0.450   0.895
 1762SOL     OW 5341   1.030   4.923   1.002
 1762SOL    HW1 5342   0.985   0.006   1.063
 1762SOL    HW2 5343   1.081   4.865   1.058
 1763SOL     OW 5344   3.877   0.621   0.453
 1763SOL    HW1 5345   3.940   0.640   0.522
 1763SOL    HW2 5346   3.807   0.573   0.497
 1764SOL     OW 5347   2.981   0.176   4.176
 1764SOL    HW1 5348   3.036   0.098   4.189
 1764SOL    HW2 5349   2.906   0.162   4.234
 1765SOL     OW 5350   1.778   2.165   3.479
 1765SOL    HW1 5351   1.800   2.105   3.408
 1765SOL    HW2 5352   1.858   2.174   3.530
 1766SOL     OW 5353   2.790   4.118   4.957
 1766SOL    HW1 5354   2.871   4.123   0.033
 1766SOL    HW2 5355   2.733   4.185   0.020
 1767SOL     OW 5356   4.571   2.058   0.194
 1767SOL    HW1 5357   4.590   2.151   0.178
 1767SOL    HW2 5358   4.623   2.012   0.128
 1768SOL     OW 5359   0.958   0.355   4.503
 1768SOL    HW1 5360   0.969   0.375   4.410
 1768SOL    HW2 5361   1.047   0.361   4.539
 1769SOL     OW 5362   2.535   4.659   1.286
 1769SOL    HW1 5363   2.594   4.715   1.336
 1769SOL    HW2 5364   2.464   4.639   1.346
 1770SOL     OW 5365   2.810   3.603   2.395
 1770SOL    HW1 5366   2.870   3.592   2.469
 1770SOL    HW2 5367   2.855   3.561   2.322
 1771SOL     OW 5368   1.766   3.893   2.818
 1771SOL    HW1 5369   1.815   3.954   2.872
 1771SOL    HW2 5370   1.828   3.822   2.800
 1772SOL     OW 5371   2.510   0.182   3.037
 1772SOL    HW1 5372   2.533   0.194   2.944
 1772SOL    HW2 5373   2.591   0.199   3.084
 1773SOL     OW 5374   3.182   1.912   4.171
 1773SOL    HW1 5375   3.214   1.872   4.090
 1773SOL    HW2 5376   3.209   1.851   4.240
 1774SOL     OW 5377   1.711   0.112   2.558
 1774SOL    HW1 5378   1.672   0.031   2.524
 1774SOL    HW2 5379   1.661   0.132   2.637
 1775SOL     OW 5380   4.622   2.015   3.287
 1775SOL    HW1 5381   4.701   1.982   3.330
 1775SOL    HW2 5382   4.654   2.087   3.232
 1776SOL     OW 5383   2.401   3.154   4.133
 1776SOL    HW1 5384   2.444   3.092   4.074
 1776SOL    HW2 5385   2.398   3.236   4.083
 1777SOL     OW 5386   2.555   0.087   4.469
 1777SOL    HW1 5387   2.571   0.181   4.473
 1777SOL    HW2 5388   2.477   0.078   4.414
 1778SOL     OW 5389   0.726   0.089   4.187
 1778SOL    HW1 5390   0.697   0.098   4.277
 1778SOL    HW2 5391   0.689   0.005   4.158
 1779SOL     OW 5392   4.763   0.712   2.132
 1779SOL    HW1 5393   4.799   0.757   2.056
 1779SOL    HW2 5394   4.680   0.756   2.150
 1780SOL     OW 5395   1.207   1.182   3.237
 1780SOL    HW1 5396   1.116   1.159   3.216
 1780SOL    HW2 5397   1.204   1.275   3.259
 1781SOL     OW 5398   2.851   3.920   3.396
 1781SOL    HW1 5399   2.936   3.963   3.403
 1781SOL    HW2 5400   2.795   3.968   3.457
 1782SOL     OW 5401   0.315   4.187   1.049
 1782SOL    HW1 5402   0.252   4.148   1.109
 1782SOL    HW2 5403   0.330   4.275   1.082
 1783SOL     OW 5404   1.404   2.787   3.711
 1783SOL    HW1 5405   1.411   2.707   3.762
 1783SOL    HW2 5406   1.465   2.848   3.753
 1784SOL     OW 5407   0.291   0.690   3.969
 1784SOL    HW1 5408   0.231   0.754   3.932
 1784SOL    HW2 5409   0.295   0.620   3.903
 1785SOL     OW 5410   3.305   4.802   4.823
 1785SOL    HW1 5411   3.260   4.861   4.763
 1785SOL    HW2 5412   3.280   4.714   4.794
 1786SOL     OW 5413   4.926   3.806   4.469
 1786SOL    HW1 5414   0.042   3.811   4.495
 1786SOL    HW2 5415   4.878   3.841   4.544
 1787SOL     OW 5416   0.741   4.530   2.685
 1787SOL    HW1 5417   0.728   4.610   2.736
 1787SOL    HW2 5418   0.657   4.517   2.640
 1788SOL     OW 5419   3.084   3.742   2.172
 1788SOL    HW1 5420   3.157   3.772   2.119
 1788SOL    HW2 5421   3.110   3.655   2.203
 1789SOL     OW 5422   4.636   3.258   3.630
 1789SOL    HW1 5423   4.558   3.203   3.623
 1789SOL    HW2 5424   4.620   3.314   3.706
 1790SOL     OW 5425   3.243   3.671   4.716
 1790SOL    HW1 5426   3.288   3.722   4.649
 1790SOL    HW2 5427   3.172   3.728   4.746
 1791SOL     OW 5428   1.557   3.846   1.890
 1791SOL    HW1 5429   1.639   3.895   1.883
 1791SOL    HW2 5430   1.572   3.766   1.841
 1792SOL     OW 5431   1.339   0.926   1.767
 1792SOL    HW1 5432   1.379   0.858   1.821
 1792SOL    HW2 5433   1.383   0.919   1.683
 1793SOL     OW 5434   0.251   0.596   1.320
 1793SOL    HW1 5435   0.243   0.505   1.290
 1793SOL    HW2 5436   0.254   0.647   1.239
 1794SOL     OW 5437   1.803   1.427   1.904
 1794SOL    HW1 5438   1.713   1.434   1.937
 1794SOL    HW2 5439   1.793   1.390   1.816
 1795SOL     OW 5440   1.740   4.231   0.317
 1795SOL    HW1 5441   1.725   4.139   0.340
 1795SOL    HW2 5442   1.715   4.279   0.396
 1796SOL     OW 5443   0.683   2.492   0.573
 1796SOL    HW1 5444   0.681   2.553   0.500
 1796SOL    HW2 5445   0.594   2.458   0.579
 1797SOL     OW 5446   3.683   2.448   2.540
 1797SOL    HW1 5447   3.658   2.373   2.486
 1797SOL    HW2 5448   3.775   2.462   2.519
 1798SOL     OW 5449   1.760   4.445   1.242
 1798SOL    HW1 5450   1.830   4.465   1.180
 1798SOL    HW2 5451   1.681   4.443   1.189
 1799SOL     OW 5452   2.184   2.932   1.994
 1799SOL    HW1 5453   2.093   2.955   2.011
 1799SOL    HW2 5454   2.188   2.837   2.001
 1800SOL     OW 5455   3.970   3.291   4.205
 1800SOL    HW1 5456   4.045   3.256   4.254
 1800SOL    HW2 5457   3.943   3.219   4.149
 1801SOL     OW 5458   0.127   0.624   0.821
 1801SOL    HW1 5459   0.057   0.635   0.756
 1801SOL    HW2 5460   0.117   0.534   0.853
 1802SOL     OW 5461   0.225   1.907   1.689
 1802SOL    HW1 5462   0.302   1.960   1.707
 1802SOL    HW2 5463   0.160   1.969   1.655
 1803SOL     OW 5464   2.342   4.096   1.757
 1803SOL    HW1 5465   2.286   4.166   1.724
 1803SOL    HW2 5466   2.289   4.017   1.749
 1804SOL     OW 5467   0.753   4.056   0.849
 1804SOL    HW1 5468   0.667   4.030   0.881
 1804SOL    HW2 5469   0.795   3.974   0.822
 1805SOL     OW 5470   0.872   3.972   3.198
 1805SOL    HW1 5471   0.841   3.931   3.118
 1805SOL    HW2 5472   0.967   3.961   3.196
 1806SOL     OW 5473   2.228   3.056   0.135
 1806SOL    HW1 5474   2.263   3.139   0.169
 1806SOL    HW2 5475   2.232   2.996   0.210
 1807SOL     OW 5476   1.549   0.577   1.524
 1807SOL    HW1 5477   1.619   0.527   1.484
 1807SOL    HW2 5478   1.506   0.515   1.584
 1808SOL     OW 5479   0.834   4.966   3.454
 1808SOL    HW1 5480   0.874   0.017   3.372
 1808SOL    HW2 5481   0.906   4.926   3.503
 1809SOL     OW 5482   0.134   4.542   1.309
 1809SOL    HW1 5483   0.175   4.544   1.223
 1809SOL    HW2 5484   0.057   4.486   1.299
 1810SOL     OW 5485   1.492   1.087   3.508
 1810SOL    HW1 5486   1.405   1.050   3.520
 1810SOL    HW2 5487   1.547   1.013   3.484
 1811SOL     OW 5488   4.973   4.175   2.053
 1811SOL    HW1 5489   0.084   4.189   2.015
 1811SOL    HW2 5490   4.944   4.262   2.080
 1812SOL     OW 5491   2.452   3.788   2.245
 1812SOL    HW1 5492   2.436   3.784   2.151
 1812SOL    HW2 5493   2.454   3.697   2.273
 1813SOL     OW 5494   2.078   2.175   2.275
 1813SOL    HW1 5495   2.056   2.239   2.208
 1813SOL    HW2 5496   2.008   2.109   2.270
 1814SOL     OW 5497   0.584   1.693   0.682
 1814SOL    HW1 5498   0.616   1.627   0.621
 1814SOL    HW2 5499   0.647   1.690   0.755
 1815SOL     OW 5500   1.436   4.001   0.627
 1815SOL    HW1 5501   1.354   3.951   0.632
 1815SOL    HW2 5502   1.481   3.981   0.709
 1816SOL     OW 5503   1.696   1.369   0.585
 1816SOL    HW1 5504   1.770   1.311   0.568
 1816SOL    HW2 5505   1.625   1.310   0.611
 1817SOL     OW 5506   2.511   0.133   0.152
 1817SOL    HW1 5507   2.513   0.039   0.167
 1817SOL    HW2 5508   2.566   0.170   0.221
 1818SOL     OW 5509   3.477   0.539   1.188
 1818SOL    HW1 5510   3.531   0.569   1.115
 1818SOL    HW2 5511   3.430   0.617   1.217
 1819SOL     OW 5512   4.886   4.857   0.042
 1819SOL    HW1 5513   4.806   4.821   0.080
 1819SOL    HW2 5514   4.937   4.886   0.118
 1820SOL     OW 5515   4.061   3.002   1.483
 1820SOL    HW1 5516   4.029   3.043   1.403
 1820SOL    HW2 5517   4.129   3.062   1.515
 1821SOL     OW 5518   1.615   0.885   0.445
 1821SOL    HW1 5519   1.561   0.861   0.370
 1821SOL    HW2 5520   1.705   0.881   0.412
 1822SOL     OW 5521   3.328   0.706   4.846
 1822SOL    HW1 5522   3.277   0.764   4.790
 1822SOL    HW2 5523   3.416   0.706   4.807
 1823SOL     OW 5524   0.025   3.329   1.982
 1823SOL    HW1 5525   0.067   3.414   1.992
 1823SOL    HW2 5526   0.053   3.299   1.895
 1824SOL     OW 5527   0.851   4.406   2.335
 1824SOL    HW1 5528   0.882   4.359   2.258
 1824SOL    HW2 5529   0.784   4.466   2.302
 1825SOL     OW 5530   1.067   2.816   4.657
 1825SOL    HW1 5531   1.099   2.806   4.747
 1825SOL    HW2 5532   1.127   2.762   4.605
 1826SOL     OW 5533   2.642   4.032   1.309
 1826SOL    HW1 5534   2.579   4.090   1.353
 1826SOL    HW2 5535   2.589   3.960   1.275
 1827SOL     OW 5536   4.418   3.202   1.013
 1827SOL    HW1 5537   4.353   3.140   0.979
 1827SOL    HW2 5538   4.453   3.159   1.091
 1828SOL     OW 5539   1.077   4.497   1.977
 1828SOL    HW1 5540   1.139   4.473   1.909
 1828SOL    HW2 5541   1.005   4.540   1.930
 1829SOL     OW 5542   2.468   2.139   0.974
 1829SOL    HW1 5543   2.399   2.176   0.920
 1829SOL    HW2 5544   2.533   2.209   0.982
 1830SOL     OW 5545   0.099   2.435   2.304
 1830SOL    HW1 5546   0.145   2.374   2.246
 1830SOL    HW2 5547   0.166   2.495   2.334
 1831SOL     OW 5548   1.391   4.848   2.036
 1831SOL    HW1 5549   1.477   4.862   2.075
 1831SOL    HW2 5550   1.329   4.879   2.103
 1832SOL     OW 5551   0.229   0.489   0.375
 1832SOL    HW1 5552   0.191   0.527   0.455
 1832SOL    HW2 5553   0.322   0.482   0.395
 1833SOL     OW 5554   0.531   3.337   1.287
 1833SOL    HW1 5555   0.584   3.258   1.291
 1833SOL    HW2 5556   0.589   3.404   1.252
 1834SOL     OW 5557   0.222   3.359   4.296
 1834SOL    HW1 5558   0.200   3.451   4.309
 1834SOL    HW2 5559   0.210   3.319   4.383
 1835SOL     OW 5560   4.966   0.277   1.443
 1835SOL    HW1 5561   4.888   0.325   1.471
 1835SOL    HW2 5562   4.934   0.218   1.374
 1836SOL     OW 5563   3.369   4.641   2.064
 1836SOL    HW1 5564   3.299   4.703   2.083
 1836SOL    HW2 5565   3.449   4.689   2.082
 1837SOL     OW 5566   3.956   4.754   4.242
 1837SOL    HW1 5567   3.861   4.752   4.255
 1837SOL    HW2 5568   3.972   4.688   4.174
 1838SOL     OW 5569   4.335   3.174   3.631
 1838SOL    HW1 5570   4.270   3.240   3.657
 1838SOL    HW2 5571   4.351   3.192   3.538
 1839SOL     OW 5572   2.771   4.461   3.274
 1839SOL    HW1 5573   2.787   4.504   3.190
 1839SOL    HW2 5574   2.782   4.530   3.339
 1840SOL     OW 5575   2.137   4.971   2.413
 1840SOL    HW1 5576   2.202   4.921   2.462
 1840SOL    HW2 5577   2.091   0.047   2.479
 1841SOL     OW 5578   3.244   4.886   1.374
 1841SOL    HW1 5579   3.321   4.926   1.415
 1841SOL    HW2 5580   3.231   4.805   1.423
 1842SOL     OW 5581   3.109   0.205   4.549
 1842SOL    HW1 5582   3.089   0.270   4.481
 1842SOL    HW2 5583   3.188   0.238   4.591
 1843SOL     OW 5584   4.199   2.384   2.350
 1843SOL    HW1 5585   4.191   2.363   2.443
 1843SOL    HW2 5586   4.142   2.321   2.306
 1844SOL     OW 5587   0.995   1.674   3.984
 1844SOL    HW1 5588   0.899   1.681   3.989
 1844SOL    HW2 5589   1.013   1.582   4.002
 1845SOL     OW 5590   2.207   2.347   3.535
 1845SOL    HW1 5591   2.192   2.362   3.442
 1845SOL    HW2 5592   2.281   2.404   3.557
 1846SOL     OW 5593   2.411   2.691   1.728
 1846SOL    HW1 5594   2.475   2.658   1.791
 1846SOL    HW2 5595   2.462   2.748   1.670
 1847SOL     OW 5596   0.086   3.752   1.386
 1847SOL    HW1 5597   0.133   3.679   1.426
 1847SOL    HW2 5598   0.087   3.820   1.453
 1848SOL     OW 5599   3.069   3.868   2.423
 1848SOL    HW1 5600   3.087   3.792   2.480
 1848SOL    HW2 5601   3.072   3.832   2.335
 1849SOL     OW 5602   3.253   3.663   0.242
 1849SOL    HW1 5603   3.237   3.725   0.313
 1849SOL    HW2 5604   3.348   3.656   0.236
 1850SOL     OW 5605   1.320   2.327   3.613
 1850SOL    HW1 5606   1.302   2.308   3.705
 1850SOL    HW2 5607   1.386   2.263   3.587
 1851SOL     OW 5608   0.591   2.354   1.477
 1851SOL    HW1 5609   0.678   2.394   1.478
 1851SOL    HW2 5610   0.561   2.364   1.387
 1852SOL     OW 5611   4.165   2.015   4.293
 1852SOL    HW1 5612   4.225   1.941   4.285
 1852SOL    HW2 5613   4.118   1.999   4.374
 1853SOL     OW 5614   3.417   4.943   2.678
 1853SOL    HW1 5615   3.450   4.894   2.603
 1853SOL    HW2 5616   3.394   4.876   2.742
 1854SOL     OW 5617   0.492   1.204   1.055
 1854SOL    HW1 5618   0.453   1.203   1.143
 1854SOL    HW2 5619   0.534   1.290   1.049
 1855SOL     OW 5620   1.220   0.249   2.862
 1855SOL    HW1 5621   1.136   0.284   2.893
 1855SOL    HW2 5622   1.232   0.169   2.912
 1856SOL     OW 5623   4.000   1.474   0.065
 1856SOL    HW1 5624   3.945   1.400   0.038
 1856SOL    HW2 5625   3.944   1.550   0.052
 1857SOL     OW 5626   2.206   4.614   0.454
 1857SOL    HW1 5627   2.138   4.569   0.504
 1857SOL    HW2 5628   2.253   4.667   0.518
 1858SOL     OW 5629   2.182   3.027   3.155
 1858SOL    HW1 5630   2.260   3.026   3.210
 1858SOL    HW2 5631   2.198   3.097   3.092
 1859SOL     OW 5632   1.417   0.101   0.391
 1859SOL    HW1 5633   1.476   0.032   0.421
 1859SOL    HW2 5634   1.474   0.175   0.370
 1860SOL     OW 5635   3.621   2.379   3.050
 1860SOL    HW1 5636   3.694   2.321   3.031
 1860SOL    HW2 5637   3.628   2.397   3.144
 1861SOL     OW 5638   4.669   3.010   2.536
 1861SOL    HW1 5639   4.606   2.962   2.482
 1861SOL    HW2 5640   4.709   3.073   2.476
 1862SOL     OW 5641   1.580   0.140   1.911
 1862SOL    HW1 5642   1.518   0.190   1.963
 1862SOL    HW2 5643   1.651   0.200   1.892
 1863SOL     OW 5644   0.100   3.291   3.658
 1863SOL    HW1 5645   0.152   3.371   3.666
 1863SOL    HW2 5646   0.056   3.283   3.743
 1864SOL     OW 5647   0.244   1.956   3.269
 1864SOL    HW1 5648   0.250   2.021   3.339
 1864SOL    HW2 5649   0.335   1.946   3.238
 1865SOL     OW 5650   4.963   2.707   2.234
 1865SOL    HW1 5651   0.011   2.764   2.307
 1865SOL    HW2 5652   0.021   2.621   2.259
 1866SOL     OW 5653   4.816   3.878   3.533
 1866SOL    HW1 5654   4.780   3.929   3.606
 1866SOL    HW2 5655   4.911   3.888   3.542
 1867SOL     OW 5656   2.290   2.745   4.578
 1867SOL    HW1 5657   2.312   2.837   4.592
 1867SOL    HW2 5658   2.332   2.722   4.495
 1868SOL     OW 5659   1.577   4.205   3.783
 1868SOL    HW1 5660   1.539   4.128   3.740
 1868SOL    HW2 5661   1.548   4.279   3.729
 1869SOL     OW 5662   2.184   2.678   2.088
 1869SOL    HW1 5663   2.115   2.674   2.155
 1869SOL    HW2 5664   2.255   2.625   2.123
 1870SOL     OW 5665   4.580   1.880   0.701
 1870SOL    HW1 5666   4.642   1.930   0.649
 1870SOL    HW2 5667   4.632   1.810   0.741
 1871SOL     OW 5668   1.056   2.307   2.166
 1871SOL    HW1 5669   1.027   2.366   2.235
 1871SOL    HW2 5670   0.976   2.284   2.119
 1872SOL     OW 5671   3.729   4.140   0.112
 1872SOL    HW1 5672   3.744   4.205   0.180
 1872SOL    HW2 5673   3.802   4.152   0.051
 1873SOL     OW 5674   4.449   2.341   2.287
 1873SOL    HW1 5675   4.469   2.408   2.222
 1873SOL    HW2 5676   4.359   2.361   2.314
 1874SOL     OW 5677   4.302   1.150   0.317
 1874SOL    HW1 5678   4.386   1.154   0.272
 1874SOL    HW2 5679   4.270   1.240   0.314
 1875SOL     OW 5680   0.898   2.917   1.105
 1875SOL    HW1 5681   0.983   2.922   1.061
 1875SOL    HW2 5682   0.887   2.824   1.125
 1876SOL     OW 5683   4.952   1.355   3.554
 1876SOL    HW1 5684   0.030   1.416   3.503
 1876SOL    HW2 5685   4.872   1.405   3.574
 1877SOL     OW 5686   3.196   0.315   2.313
 1877SOL    HW1 5687   3.106   0.346   2.304
 1877SOL    HW2 5688   3.198   0.276   2.400
 1878SOL     OW 5689   0.657   4.315   1.938
 1878SOL    HW1 5690   0.728   4.283   1.994
 1878SOL    HW2 5691   0.647   4.407   1.961
 1879SOL     OW 5692   0.546   4.134   2.451
 1879SOL    HW1 5693   0.638   4.107   2.444
 1879SOL    HW2 5694   0.550   4.230   2.455
 1880SOL     OW 5695   4.072   4.454   3.373
 1880SOL    HW1 5696   4.093   4.396   3.446
 1880SOL    HW2 5697   4.064   4.541   3.413
 1881SOL     OW 5698   3.983   2.162   4.509
 1881SOL    HW1 5699   3.997   2.257   4.501
 1881SOL    HW2 5700   3.963   2.148   4.602
 1882SOL     OW 5701   1.468   4.347   3.395
 1882SOL    HW1 5702   1.501   4.331   3.307
 1882SOL    HW2 5703   1.377   4.319   3.392
 1883SOL     OW 5704   2.170   3.028   4.822
 1883SOL    HW1 5705   2.206   3.055   4.907
 1883SOL    HW2 5706   2.085   2.989   4.843
 1884SOL     OW 5707   0.583   4.789   2.219
 1884SOL    HW1 5708   0.526   4.845   2.167
 1884SOL    HW2 5709   0.524   4.736   2.272
 1885SOL     OW 5710   0.936   0.206   2.140
 1885SOL    HW1 5711   0.976   0.201   2.227
 1885SOL    HW2 5712   0.855   0.255   2.154
 1886SOL     OW 5713   2.120   1.586   0.489
 1886SOL    HW1 5714   2.031   1.580   0.453
 1886SOL    HW2 5715   2.145   1.496   0.506
 1887SOL     OW 5716   1.245   3.301   1.862
 1887SOL    HW1 5717   1.177   3.363   1.837
 1887SOL    HW2 5718   1.213   3.216   1.830
 1888SOL     OW 5719   1.771   3.553   0.322
 1888SOL    HW1 5720   1.747   3.597   0.240
 1888SOL    HW2 5721   1.864   3.569   0.332
 1889SOL     OW 5722   2.569   1.033   0.959
 1889SOL    HW1 5723   2.523   1.003   0.881
 1889SOL    HW2 5724   2.584   0.954   1.010
 1890SOL     OW 5725   0.197   1.238   2.126
 1890SOL    HW1 5726   0.192   1.249   2.031
 1890SOL    HW2 5727   0.173   1.147   2.140
 1891SOL     OW 5728   0.089   2.829   2.449
 1891SOL    HW1 5729   0.155   2.871   2.504
 1891SOL    HW2 5730   0.006   2.845   2.495
 1892SOL     OW 5731   1.996   2.088   1.328
 1892SOL    HW1 5732   1.956   2.010   1.366
 1892SOL    HW2 5733   1.940   2.111   1.254
 1893SOL     OW 5734   4.104   4.810   3.916
 1893SOL    HW1 5735   4.153   4.881   3.874
 1893SOL    HW2 5736   4.032   4.792   3.856
 1894SOL     OW 5737   4.480   3.944   0.240
 1894SOL    HW1 5738   4.556   3.931   0.182
 1894SOL    HW2 5739   4.444   3.856   0.252
 1895SOL     OW 5740   3.151   4.825   0.824
 1895SOL    HW1 5741   3.144   4.919   0.839
 1895SOL    HW2 5742   3.194   4.791   0.903
 1896SOL     OW 5743   2.500   2.846   3.548
 1896SOL    HW1 5744   2.431   2.779   3.542
 1896SOL    HW2 5745   2.525   2.846   3.640
 1897SOL     OW 5746   2.277   2.027   0.077
 1897SOL    HW1 5747   2.372   2.033   0.083
 1897SOL    HW2 5748   2.260   1.941   0.039
 1898SOL     OW 5749   4.617   3.153   4.598
 1898SOL    HW1 5750   4.671   3.193   4.666
 1898SOL    HW2 5751   4.656   3.067   4.583
 1899SOL     OW 5752   2.462   3.474   2.118
 1899SOL    HW1 5753   2.513   3.489   2.198
 1899SOL    HW2 5754   2.380   3.435   2.149
 1900SOL     OW 5755   0.953   1.693   1.382
 1900SOL    HW1 5756   0.994   1.706   1.467
 1900SOL    HW2 5757   0.989   1.610   1.350
 1901SOL     OW 5758   1.385   2.003   2.494
 1901SOL    HW1 5759   1.386   1.914   2.460
 1901SOL    HW2 5760   1.334   2.053   2.429
 1902SOL     OW 5761   4.800   3.441   3.181
 1902SOL    HW1 5762   4.713   3.433   3.143
 1902SOL    HW2 5763   4.784   3.457   3.274
 1903SOL     OW 5764   4.156   4.769   1.229
 1903SOL    HW1 5765   4.184   4.706   1.295
 1903SOL    HW2 5766   4.087   4.820   1.273
 1904SOL     OW 5767   1.357   4.231   1.754
 1904SOL    HW1 5768   1.436   4.197   1.710
 1904SOL    HW2 5769   1.348   4.176   1.832
 1905SOL     OW 5770   2.607   3.189   3.707
 1905SOL    HW1 5771   2.627   3.215   3.617
 1905SOL    HW2 5772   2.518   3.154   3.703
 1906SOL     OW 5773   4.908   3.676   1.188
 1906SOL    HW1 5774   4.906   3.582   1.208
 1906SOL    HW2 5775   4.967   3.713   1.254
 1907SOL     OW 5776   3.644   2.700   2.140
 1907SOL    HW1 5777   3.718   2.742   2.095
 1907SOL    HW2 5778   3.574   2.765   2.138
 1908SOL     OW 5779   4.709   0.358   0.712
 1908SOL    HW1 5780   4.791   0.397   0.682
 1908SOL    HW2 5781   4.733   0.270   0.741
 1909SOL     OW 5782   4.335   3.635   4.651
 1909SOL    HW1 5783   4.402   3.663   4.589
 1909SOL    HW2 5784   4.337   3.701   4.720
 1910SOL     OW 5785   4.376   0.978   0.853
 1910SOL    HW1 5786   4.310   1.030   0.899
 1910SOL    HW2 5787   4.376   1.014   0.764
 1911SOL     OW 5788   4.222   0.024   3.321
 1911SOL    HW1 5789   4.204   4.913   3.286
 1911SOL    HW2 5790   4.236   0.079   3.243
 1912SOL     OW 5791   1.418   2.754   3.426
 1912SOL    HW1 5792   1.429   2.771   3.519
 1912SOL    HW2 5793   1.373   2.670   3.422
 1913SOL     OW 5794   4.650   1.377   1.989
 1913SOL    HW1 5795   4.721   1.431   2.024
 1913SOL    HW2 5796   4.685   1.341   1.907
 1914SOL     OW 5797   0.532   2.324   4.122
 1914SOL    HW1 5798   0.552   2.398   4.180
 1914SOL    HW2 5799   0.524   2.249   4.182
 1915SOL     OW 5800   0.923   4.058   4.691
 1915SOL    HW1 5801   0.888   3.977   4.653
 1915SOL    HW2 5802   0.908   4.124   4.623
 1916SOL     OW 5803   1.986   4.958   1.941
 1916SOL    HW1 5804   1.998   4.953   2.035
 1916SOL    HW2 5805   2.075   4.955   1.905
 1917SOL     OW 5806   1.058   0.094   1.812
 1917SOL    HW1 5807   1.135   0.124   1.859
 1917SOL    HW2 5808   1.084   0.011   1.773
 1918SOL     OW 5809   4.784   4.793   1.351
 1918SOL    HW1 5810   4.852   4.757   1.408
 1918SOL    HW2 5811   4.784   4.735   1.275
 1919SOL     OW 5812   4.207   3.525   0.020
 1919SOL    HW1 5813   4.169   3.608   4.966
 1919SOL    HW2 5814   4.301   3.538   0.011
 1920SOL     OW 5815   4.621   1.429   0.945
 1920SOL    HW1 5816   4.651   1.408   0.857
 1920SOL    HW2 5817   4.543   1.375   0.958
 1921SOL     OW 5818   2.844   3.521   4.456
 1921SOL    HW1 5819   2.911   3.575   4.414
 1921SOL    HW2 5820   2.766   3.532   4.402
 1922SOL     OW 5821   1.355   3.483   1.173
 1922SOL    HW1 5822   1.354   3.563   1.121
 1922SOL    HW2 5823   1.290   3.497   1.241
 1923SOL     OW 5824   0.110   0.864   3.903
 1923SOL    HW1 5825   0.093   0.829   3.815
 1923SOL    HW2 5826   0.111   0.959   3.891
 1924SOL     OW 5827   3.687   0.478   3.478
 1924SOL    HW1 5828   3.637   0.535   3.420
 1924SOL    HW2 5829   3.716   0.406   3.422
 1925SOL     OW 5830   4.817   1.138   4.014
 1925SOL    HW1 5831   4.753   1.071   4.036
 1925SOL    HW2 5832   4.781   1.219   4.049
 1926SOL     OW 5833   1.867   2.835   4.678
 1926SOL    HW1 5834   1.773   2.823   4.663
 1926SOL    HW2 5835   1.872   2.879   4.763
 1927SOL     OW 5836   0.889   1.657   3.016
 1927SOL    HW1 5837   0.809   1.700   3.044
 1927SOL    HW2 5838   0.958   1.721   3.029
 1928SOL     OW 5839   1.919   4.317   2.413
 1928SOL    HW1 5840   1.952   4.228   2.423
 1928SOL    HW2 5841   1.951   4.344   2.327
 1929SOL     OW 5842   3.081   4.720   1.705
 1929SOL    HW1 5843   3.110   4.641   1.660
 1929SOL    HW2 5844   3.079   4.696   1.797
 1930SOL     OW 5845   3.940   1.721   0.706
 1930SOL    HW1 5846   3.956   1.641   0.755
 1930SOL    HW2 5847   3.992   1.788   0.751
 1931SOL     OW 5848   1.188   4.664   4.159
 1931SOL    HW1 5849   1.220   4.747   4.196
 1931SOL    HW2 5850   1.262   4.631   4.107
 1932SOL     OW 5851   4.488   0.460   4.583
 1932SOL    HW1 5852   4.562   0.480   4.525
 1932SOL    HW2 5853   4.447   0.545   4.599
 1933SOL     OW 5854   2.570   0.470   1.260
 1933SOL    HW1 5855   2.535   0.505   1.341
 1933SOL    HW2 5856   2.643   0.529   1.237
 1934SOL     OW 5857   4.076   1.124   3.825
 1934SOL    HW1 5858   4.001   1.127   3.766
 1934SOL    HW2 5859   4.039   1.104   3.911
 1935SOL     OW 5860   3.523   1.878   1.215
 1935SOL    HW1 5861   3.540   1.827   1.136
 1935SOL    HW2 5862   3.428   1.879   1.222
 1936SOL     OW 5863   0.160   3.084   1.353
 1936SOL    HW1 5864   0.240   3.073   1.404
 1936SOL    HW2 5865   0.178   3.039   1.270
 1937SOL     OW 5866   3.473   1.169   3.244
 1937SOL    HW1 5867   3.417   1.192   3.170
 1937SOL    HW2 5868   3.548   1.125   3.204
 1938SOL     OW 5869   0.332   1.016   1.203
 1938SOL    HW1 5870   0.303   1.044   1.290
 1938SOL    HW2 5871   0.253   1.023   1.149
 1939SOL     OW 5872   2.425   1.447   2.410
 1939SOL    HW1 5873   2.349   1.501   2.389
 1939SOL    HW2 5874   2.472   1.497   2.477
 1940SOL     OW 5875   1.930   3.993   0.854
 1940SOL    HW1 5876   1.860   4.036   0.806
 1940SOL    HW2 5877   1.887   3.921   0.901
 1941SOL     OW 5878   0.743   1.191   2.659
 1941SOL    HW1 5879   0.800   1.264   2.684
 1941SOL    HW2 5880   0.784   1.154   2.581
 1942SOL     OW 5881   4.042   1.101   0.129
 1942SOL    HW1 5882   4.066   1.013   0.101
 1942SOL    HW2 5883   4.064   1.157   0.055
 1943SOL     OW 5884   1.959   1.480   2.134
 1943SOL    HW1 5885   2.004   1.564   2.127
 1943SOL    HW2 5886   1.899   1.478   2.060
 1944SOL     OW 5887   0.246   1.251   0.518
 1944SOL    HW1 5888   0.338   1.228   0.535
 1944SOL    HW2 5889   0.210   1.271   0.604
 1945SOL     OW 5890   2.101   4.126   4.959
 1945SOL    HW1 5891   2.066   4.213   4.974
 1945SOL    HW2 5892   2.190   4.140   4.927
 1946SOL     OW 5893   4.195   1.515   2.415
 1946SOL    HW1 5894   4.144   1.448   2.461
 1946SOL    HW2 5895   4.147   1.530   2.333
 1947SOL     OW 5896   1.607   3.572   1.761
 1947SOL    HW1 5897   1.575   3.482   1.763
 1947SOL    HW2 5898   1.702   3.564   1.766
 1948SOL     OW 5899   1.581   4.972   3.365
 1948SOL    HW1 5900   1.555   0.045   3.443
 1948SOL    HW2 5901   1.677   4.967   3.370
 1949SOL     OW 5902   4.223   2.815   4.587
 1949SOL    HW1 5903   4.153   2.805   4.521
 1949SOL    HW2 5904   4.271   2.893   4.559
 1950SOL     OW 5905   4.522   2.532   2.798
 1950SOL    HW1 5906   4.568   2.565   2.876
 1950SOL    HW2 5907   4.562   2.579   2.725
 1951SOL     OW 5908   0.617   2.703   4.140
 1951SOL    HW1 5909   0.683   2.642   4.109
 1951SOL    HW2 5910   0.570   2.731   4.061
 1952SOL     OW 5911   3.745   3.567   3.120
 1952SOL    HW1 5912   3.775   3.657   3.128
 1952SOL    HW2 5913   3.688   3.554   3.196
 1953SOL     OW 5914   1.075   0.116   1.388
 1953SOL    HW1 5915   1.079   0.180   1.317
 1953SOL    HW2 5916   0.981   0.100   1.402
 1954SOL     OW 5917   0.165   2.112   2.355
 1954SOL    HW1 5918   0.072   2.112   2.332
 1954SOL    HW2 5919   0.205   2.173   2.293
 1955SOL     OW 5920   2.082   1.791   3.994
 1955SOL    HW1 5921   2.094   1.710   3.945
 1955SOL    HW2 5922   2.126   1.775   4.078
 1956SOL     OW 5923   3.015   3.338   2.575
 1956SOL    HW1 5924   2.966   3.266   2.615
 1956SOL    HW2 5925   3.002   3.327   2.481
 1957SOL     OW 5926   2.304   4.796   0.651
 1957SOL    HW1 5927   2.292   4.805   0.745
 1957SOL    HW2 5928   2.324   4.884   0.620
 1958SOL     OW 5929   0.928   4.233   4.129
 1958SOL    HW1 5930   0.994   4.217   4.061
 1958SOL    HW2 5931   0.963   4.307   4.179
 1959SOL     OW 5932   1.007   2.178   2.956
 1959SOL    HW1 5933   1.012   2.261   3.003
 1959SOL    HW2 5934   0.930   2.186   2.900
 1960SOL     OW 5935   0.771   0.453   2.223
 1960SOL    HW1 5936   0.845   0.508   2.248
 1960SOL    HW2 5937   0.725   0.504   2.156
 1961SOL     OW 5938   4.540   4.849   3.374
 1961SOL    HW1 5939   4.556   4.856   3.468
 1961SOL    HW2 5940   4.561   4.935   3.339
 1962SOL     OW 5941   3.046   3.050   3.579
 1962SOL    HW1 5942   3.108   3.035   3.650
 1962SOL    HW2 5943   2.963   3.068   3.624
 1963SOL     OW 5944   4.530   2.507   1.859
 1963SOL    HW1 5945   4.598   2.458   1.812
 1963SOL    HW2 5946   4.549   2.492   1.952
 1964SOL     OW 5947   0.489   1.953   2.517
 1964SOL    HW1 5948   0.466   1.965   2.609
 1964SOL    HW2 5949   0.507   2.041   2.485
 1965SOL     OW 5950   2.653   3.053   0.312
 1965SOL    HW1 5951   2.723   3.050   0.247
 1965SOL    HW2 5952   2.635   2.961   0.332
 1966SOL     OW 5953   4.256   1.181   1.062
 1966SOL    HW1 5954   4.169   1.157   1.091
 1966SOL    HW2 5955   4.306   1.196   1.142
 1967SOL     OW 5956   3.300   2.403   0.632
 1967SOL    HW1 5957   3.302   2.324   0.578
 1967SOL    HW2 5958   3.255   2.468   0.577
 1968SOL     OW 5959   3.830   1.456   2.035
 1968SOL    HW1 5960   3.772   1.387   2.004
 1968SOL    HW2 5961   3.861   1.499   1.955
 1969SOL     OW 5962   0.810   1.412   1.829
 1969SOL    HW1 5963   0.776   1.466   1.901
 1969SOL    HW2 5964   0.811   1.471   1.753
 1970SOL     OW 5965   4.479   3.758   1.576
 1970SOL    HW1 5966   4.540   3.684   1.567
 1970SOL    HW2 5967   4.532   3.835   1.556
 1971SOL     OW 5968   1.498   4.896   1.466
 1971SOL    HW1 5969   1.465   4.947   1.392
 1971SOL    HW2 5970   1.509   4.961   1.536
 1972SOL     OW 5971   4.135   2.924   4.841
 1972SOL    HW1 5972   4.148   2.872   4.762
 1972SOL    HW2 5973   4.044   2.954   4.836
 1973SOL     OW 5974   1.068   1.948   0.627
 1973SOL    HW1 5975   1.119   1.885   0.576
 1973SOL    HW2 5976   0.977   1.925   0.609
 1974SOL     OW 5977   3.076   0.355   0.194
 1974SOL    HW1 5978   3.137   0.428   0.180
 1974SOL    HW2 5979   3.124   0.278   0.163
 1975SOL     OW 5980   4.950   2.074   3.885
 1975SOL    HW1 5981   4.862   2.036   3.882
 1975SOL    HW2 5982   0.012   2.039   3.965
 1976SOL     OW 5983   3.208   2.333   2.632
 1976SOL    HW1 5984   3.266   2.257   2.629
 1976SOL    HW2 5985   3.267   2.408   2.630
 1977SOL     OW 5986   3.731   2.456   2.821
 1977SOL    HW1 5987   3.656   2.446   2.880
 1977SOL    HW2 5988   3.691   2.466   2.734
 1978SOL     OW 5989   3.182   0.164   4.943
 1978SOL    HW1 5990   3.175   0.128   0.055
 1978SOL    HW2 5991   3.173   0.089   4.885
 1979SOL     OW 5992   0.492   4.507   1.655
 1979SOL    HW1 5993   0.585   4.525   1.644
 1979SOL    HW2 5994   0.448   4.573   1.601
 1980SOL     OW 5995   3.226   0.415   4.136
 1980SOL    HW1 5996   3.263   0.396   4.050
 1980SOL    HW2 5997   3.249   0.339   4.190
 1981SOL     OW 5998   1.702   3.134   3.550
 1981SOL    HW1 5999   1.753   3.054   3.563
 1981SOL    HW2 6000   1.694   3.172   3.638
 1982SOL     OW 6001   1.866   3.764   0.978
 1982SOL    HW1 6002   1.907   3.777   1.064
 1982SOL    HW2 6003   1.937   3.731   0.923
 1983SOL     OW 6004   0.338   2.853   2.239
 1983SOL    HW1 6005   0.401   2.822   2.174
 1983SOL    HW2 6006   0.270   2.897   2.188
 1984SOL     OW 6007   3.046   2.639   4.690
 1984SOL    HW1 6008   2.979   2.615   4.753
 1984SOL    HW2 6009   3.004   2.704   4.633
 1985SOL     OW 6010   3.008   3.597   0.975
 1985SOL    HW1 6011   3.083   3.629   1.024
 1985SOL    HW2 6012   3.029   3.614   0.884
 1986SOL     OW 6013   0.281   2.072   1.302
 1986SOL    HW1 6014   0.233   2.041   1.225
 1986SOL    HW2 6015   0.347   2.005   1.317
 1987SOL     OW 6016   1.636   2.694   0.751
 1987SOL    HW1 6017   1.633   2.787   0.771
 1987SOL    HW2 6018   1.725   2.679   0.718
 1988SOL     OW 6019   2.490   3.541   2.383
 1988SOL    HW1 6020   2.583   3.531   2.399
 1988SOL    HW2 6021   2.451   3.542   2.471
 1989SOL     OW 6022   4.647   3.907   2.126
 1989SOL    HW1 6023   4.672   3.817   2.147
 1989SOL    HW2 6024   4.707   3.932   2.056
 1990SOL     OW 6025   3.480   4.430   3.222
 1990SOL    HW1 6026   3.493   4.346   3.180
 1990SOL    HW2 6027   3.462   4.408   3.314
 1991SOL     OW 6028   2.601   1.544   4.366
 1991SOL    HW1 6029   2.655   1.557   4.444
 1991SOL    HW2 6030   2.602   1.629   4.322
 1992SOL     OW 6031   0.706   3.454   1.570
 1992SOL    HW1 6032   0.780   3.498   1.529
 1992SOL    HW2 6033   0.716   3.362   1.547
 1993SOL     OW 6034   4.086   2.786   4.362
 1993SOL    HW1 6035   4.135   2.834   4.295
 1993SOL    HW2 6036   4.045   2.714   4.314
 1994SOL     OW 6037   2.799   4.937   0.348
 1994SOL    HW1 6038   2.817   4.929   0.254
 1994SOL    HW2 6039   2.847   4.864   0.387
 1995SOL     OW 6040   2.874   2.816   0.245
 1995SOL    HW1 6041   2.895   2.734   0.199
 1995SOL    HW2 6042   2.855   2.878   0.175
 1996SOL     OW 6043   1.161   4.003   4.247
 1996SOL    HW1 6044   1.090   3.980   4.186
 1996SOL    HW2 6045   1.115   4.036   4.325
 1997SOL     OW 6046   3.287   2.280   1.830
 1997SOL    HW1 6047   3.239   2.341   1.775
 1997SOL    HW2 6048   3.258   2.300   1.919
 1998SOL     OW 6049   0.886   0.734   1.747
 1998SOL    HW1 6050   0.940   0.800   1.791
 1998SOL    HW2 6051   0.921   0.732   1.657
 1999SOL     OW 6052   4.414   2.522   0.322
 1999SOL    HW1 6053   4.430   2.577   0.398
 1999SOL    HW2 6054   4.328   2.548   0.290
 2000SOL     OW 6055   1.462   1.596   2.772
 2000SOL    HW1 6056   1.543   1.554   2.801
 2000SOL    HW2 6057   1.392   1.544   2.811
 2001SOL     OW 6058   1.599   3.859   4.856
 2001SOL    HW1 6059   1.669   3.898   4.804
 2001SOL    HW2 6060   1.642   3.833   4.938
 2002SOL     OW 6061   1.856   0.677   2.189
 2002SOL    HW1 6062   1.926   0.741   2.204
 2002SOL    HW2 6063   1.848   0.631   2.272
 2003SOL     OW 6064   4.391   3.615   1.814
 2003SOL    HW1 6065   4.410   3.698   1.771
 2003SOL    HW2 6066   4.296   3.618   1.831
 2004SOL     OW 6067   0.939   3.936   4.068
 2004SOL    HW1 6068   0.919   3.889   3.987
 2004SOL    HW2 6069   0.939   4.028   4.043
 2005SOL     OW 6070   0.937   1.104   4.411
 2005SOL    HW1 6071   0.920   1.145   4.495
 2005SOL    HW2 6072   0.859   1.049   4.395
 2006SOL     OW 6073   2.523   4.544   1.991
 2006SOL    HW1 6074   2.556   4.521   2.077
 2006SOL    HW2 6075   2.573   4.621   1.965
 2007SOL     OW 6076   2.226   3.577   4.526
 2007SOL    HW1 6077   2.172   3.632   4.583
 2007SOL    HW2 6078   2.256   3.636   4.457
 2008SOL     OW 6079   1.965   2.838   1.729
 2008SOL    HW1 6080   2.015   2.766   1.769
 2008SOL    HW2 6081   1.873   2.814   1.742
 2009SOL     OW 6082   3.395   2.567   1.135
 2009SOL    HW1 6083   3.305   2.577   1.165
 2009SOL    HW2 6084   3.400   2.477   1.102
 2010SOL     OW 6085   4.428   0.574   1.348
 2010SOL    HW1 6086   4.485   0.511   1.304
 2010SOL    HW2 6087   4.439   0.557   1.441
 2011SOL     OW 6088   1.454   0.710   0.205
 2011SOL    HW1 6089   1.422   0.761   0.131
 2011SOL    HW2 6090   1.506   0.640   0.166
 2012SOL     OW 6091   0.973   3.931   0.183
 2012SOL    HW1 6092   0.992   4.024   0.173
 2012SOL    HW2 6093   0.881   3.929   0.209
 2013SOL     OW 6094   4.043   4.374   1.571
 2013SOL    HW1 6095   4.084   4.298   1.529
 2013SOL    HW2 6096   4.068   4.367   1.663
 2014SOL     OW 6097   3.044   2.090   0.918
 2014SOL    HW1 6098   3.023   2.154   0.986
 2014SOL    HW2 6099   3.061   2.142   0.840
 2015SOL     OW 6100   1.057   3.229   0.485
 2015SOL    HW1 6101   1.007   3.307   0.508
 2015SOL    HW2 6102   1.133   3.230   0.543
 2016SOL     OW 6103   3.417   1.676   0.494
 2016SOL    HW1 6104   3.361   1.754   0.491
 2016SOL    HW2 6105   3.370   1.611   0.441
 2017SOL     OW 6106   2.767   2.866   3.423
 2017SOL    HW1 6107   2.796   2.954   3.446
 2017SOL    HW2 6108   2.682   2.857   3.466
 2018SOL     OW 6109   0.977   1.354   0.337
 2018SOL    HW1 6110   1.000   1.444   0.360
 2018SOL    HW2 6111   0.926   1.362   0.257
 2019SOL     OW 6112   0.519   0.586   1.004
 2019SOL    HW1 6113   0.552   0.663   1.050
 2019SOL    HW2 6114   0.518   0.611   0.911
 2020SOL     OW 6115   0.435   3.837   4.738
 2020SOL    HW1 6116   0.463   3.792   4.817
 2020SOL    HW2 6117   0.516   3.850   4.688
 2021SOL     OW 6118   0.182   4.679   4.763
 2021SOL    HW1 6119   0.198   4.614   4.831
 2021SOL    HW2 6120   0.199   4.632   4.681
 2022SOL     OW 6121   3.007   0.376   0.712
 2022SOL    HW1 6122   3.096   0.374   0.679
 2022SOL    HW2 6123   2.969   0.293   0.684
 2023SOL     OW 6124   4.469   0.275   0.610
 2023SOL    HW1 6125   4.553   0.274   0.656
 2023SOL    HW2 6126   4.410   0.226   0.666
 2024SOL     OW 6127   4.956   2.896   3.717
 2024SOL    HW1 6128   0.046   2.964   3.715
 2024SOL    HW2 6129   4.895   2.920   3.647
 2025SOL     OW 6130   3.405   2.760   4.726
 2025SOL    HW1 6131   3.375   2.721   4.643
 2025SOL    HW2 6132   3.392   2.854   4.715
 2026SOL     OW 6133   1.799   0.640   0.275
 2026SOL    HW1 6134   1.823   0.727   0.307
 2026SOL    HW2 6135   1.736   0.607   0.339
 2027SOL     OW 6136   0.547   3.374   0.521
 2027SOL    HW1 6137   0.495   3.433   0.575
 2027SOL    HW2 6138   0.484   3.309   0.488
 2028SOL     OW 6139   0.529   3.400   4.728
 2028SOL    HW1 6140   0.486   3.341   4.790
 2028SOL    HW2 6141   0.457   3.445   4.684
 2029SOL     OW 6142   4.712   2.191   3.117
 2029SOL    HW1 6143   4.724   2.285   3.128
 2029SOL    HW2 6144   4.699   2.179   3.023
 2030SOL     OW 6145   1.749   4.163   0.717
 2030SOL    HW1 6146   1.706   4.222   0.654
 2030SOL    HW2 6147   1.782   4.221   0.785
 2031SOL     OW 6148   2.805   1.805   0.970
 2031SOL    HW1 6149   2.842   1.720   0.994
 2031SOL    HW2 6150   2.715   1.785   0.944
 2032SOL     OW 6151   1.428   3.991   0.075
 2032SOL    HW1 6152   1.394   3.919   0.128
 2032SOL    HW2 6153   1.480   3.947   0.007
 2033SOL     OW 6154   3.826   0.074   2.850
 2033SOL    HW1 6155   3.788   0.081   2.937
 2033SOL    HW2 6156   3.775   0.006   2.807
 2034SOL     OW 6157   3.897   4.102   1.208
 2034SOL    HW1 6158   3.889   4.086   1.114
 2034SOL    HW2 6159   3.807   4.102   1.240
 2035SOL     OW 6160   0.478   1.638   0.312
 2035SOL    HW1 6161   0.394   1.599   0.291
 2035SOL    HW2 6162   0.524   1.642   0.228
 2036SOL     OW 6163   4.043   2.196   0.316
 2036SOL    HW1 6164   4.071   2.236   0.233
 2036SOL    HW2 6165   3.954   2.227   0.329
 2037SOL     OW 6166   0.411   0.408   3.440
 2037SOL    HW1 6167   0.470   0.336   3.460
 2037SOL    HW2 6168   0.365   0.381   3.360
 2038SOL     OW 6169   2.598   3.887   3.903
 2038SOL    HW1 6170   2.687   3.883   3.868
 2038SOL    HW2 6171   2.560   3.966   3.865
 2039SOL     OW 6172   3.070   4.940   3.482
 2039SOL    HW1 6173   3.066   4.845   3.480
 2039SOL    HW2 6174   3.080   4.962   3.575
 2040SOL     OW 6175   2.589   2.608   1.923
 2040SOL    HW1 6176   2.645   2.530   1.923
 2040SOL    HW2 6177   2.574   2.626   2.016
 2041SOL     OW 6178   3.620   3.853   2.798
 2041SOL    HW1 6179   3.639   3.910   2.724
 2041SOL    HW2 6180   3.675   3.775   2.783
 2042SOL     OW 6181   3.879   3.397   2.645
 2042SOL    HW1 6182   3.880   3.314   2.692
 2042SOL    HW2 6183   3.929   3.380   2.565
 2043SOL     OW 6184   4.265   1.148   1.502
 2043SOL    HW1 6185   4.235   1.103   1.581
 2043SOL    HW2 6186   4.352   1.180   1.526
 2044SOL     OW 6187   4.042   2.554   0.551
 2044SOL    HW1 6188   3.961   2.509   0.577
 2044SOL    HW2 6189   4.112   2.496   0.580
 2045SOL     OW 6190   0.949   1.136   4.695
 2045SOL    HW1 6191   0.887   1.069   4.667
 2045SOL    HW2 6192   0.894   1.213   4.713
 2046SOL     OW 6193   1.912   3.036   4.130
 2046SOL    HW1 6194   1.870   2.952   4.109
 2046SOL    HW2 6195   1.963   3.019   4.209
 2047SOL     OW 6196   0.935   3.838   0.808
 2047SOL    HW1 6197   0.943   3.744   0.823
 2047SOL    HW2 6198   0.930   3.846   0.713
 2048SOL     OW 6199   0.321   1.256   4.347
 2048SOL    HW1 6200   0.239   1.207   4.347
 2048SOL    HW2 6201   0.381   1.201   4.297
 2049SOL     OW 6202   4.904   0.847   3.570
 2049SOL    HW1 6203   4.953   0.927   3.586
 2049SOL    HW2 6204   4.844   0.869   3.499
 2050SOL     OW 6205   3.760   1.907   0.587
 2050SOL    HW1 6206   3.710   1.835   0.547
 2050SOL    HW2 6207   3.829   1.863   0.636
 2051SOL     OW 6208   3.603   2.966   1.931
 2051SOL    HW1 6209   3.631   3.058   1.935
 2051SOL    HW2 6210   3.567   2.955   1.843
 2052SOL     OW 6211   4.463   1.756   1.303
 2052SOL    HW1 6212   4.458   1.818   1.230
 2052SOL    HW2 6213   4.518   1.685   1.270
 2053SOL     OW 6214   3.711   2.020   4.619
 2053SOL    HW1 6215   3.659   1.964   4.561
 2053SOL    HW2 6216   3.695   2.109   4.587
 2054SOL     OW 6217   1.271   3.883   2.787
 2054SOL    HW1 6218   1.246   3.971   2.814
 2054SOL    HW2 6219   1.252   3.828   2.863
 2055SOL     OW 6220   2.282   0.382   1.281
 2055SOL    HW1 6221   2.267   0.400   1.374
 2055SOL    HW2 6222   2.376   0.399   1.269
 2056SOL     OW 6223   4.027   1.164   4.829
 2056SOL    HW1 6224   3.967   1.089   4.831
 2056SOL    HW2 6225   3.970   1.240   4.829
 2057SOL     OW 6226   4.962   0.597   1.353
 2057SOL    HW1 6227   0.080   0.580   1.350
 2057SOL    HW2 6228   4.938   0.586   1.446
 2058SOL     OW 6229   3.077   1.461   4.643
 2058SOL    HW1 6230   3.170   1.484   4.646
 2058SOL    HW2 6231   3.032   1.545   4.632
 2059SOL     OW 6232   1.877   1.889   4.527
 2059SOL    HW1 6233   1.923   1.970   4.506
 2059SOL    HW2 6234   1.918   1.822   4.472
 2060SOL     OW 6235   0.679   4.219   4.616
 2060SOL    HW1 6236   0.710   4.225   4.707
 2060SOL    HW2 6237   0.584   4.210   4.624
 2061SOL     OW 6238   3.502   2.333   1.685
 2061SOL    HW1 6239   3.537   2.255   1.641
 2061SOL    HW2 6240   3.444   2.298   1.753
 2062SOL     OW 6241   3.288   2.762   0.270
 2062SOL    HW1 6242   3.342   2.742   0.193
 2062SOL    HW2 6243   3.248   2.846   0.250
 2063SOL     OW 6244   4.336   1.893   2.186
 2063SOL    HW1 6245   4.383   1.927   2.110
 2063SOL    HW2 6246   4.392   1.916   2.260
 2064SOL     OW 6247   3.584   0.046   4.665
 2064SOL    HW1 6248   3.638   4.943   4.663
 2064SOL    HW2 6249   3.542   0.044   4.751
 2065SOL     OW 6250   3.827   4.739   2.656
 2065SOL    HW1 6251   3.809   4.733   2.750
 2065SOL    HW2 6252   3.831   4.648   2.626
 2066SOL     OW 6253   1.800   1.633   2.819
 2066SOL    HW1 6254   1.764   1.546   2.804
 2066SOL    HW2 6255   1.875   1.619   2.877
 2067SOL     OW 6256   4.455   2.945   2.188
 2067SOL    HW1 6257   4.533   2.995   2.162
 2067SOL    HW2 6258   4.383   2.987   2.142
 2068SOL     OW 6259   3.783   4.596   1.814
 2068SOL    HW1 6260   3.875   4.619   1.831
 2068SOL    HW2 6261   3.789   4.527   1.747
 2069SOL     OW 6262   4.573   4.688   2.123
 2069SOL    HW1 6263   4.592   4.639   2.203
 2069SOL    HW2 6264   4.638   4.656   2.060
 2070SOL     OW 6265   2.313   0.750   2.642
 2070SOL    HW1 6266   2.380   0.740   2.574
 2070SOL    HW2 6267   2.264   0.828   2.616
 2071SOL     OW 6268   3.258   1.120   0.335
 2071SOL    HW1 6269   3.319   1.088   0.269
 2071SOL    HW2 6270   3.247   1.046   0.395
 2072SOL     OW 6271   4.354   3.454   2.643
 2072SOL    HW1 6272   4.305   3.380   2.607
 2072SOL    HW2 6273   4.301   3.482   2.718
 2073SOL     OW 6274   0.794   2.617   4.823
 2073SOL    HW1 6275   0.781   2.711   4.830
 2073SOL    HW2 6276   0.818   2.602   4.732
 2074SOL     OW 6277   3.760   4.217   3.464
 2074SOL    HW1 6278   3.807   4.180   3.389
 2074SOL    HW2 6279   3.745   4.142   3.522
 2075SOL     OW 6280   3.853   0.662   2.588
 2075SOL    HW1 6281   3.941   0.625   2.601
 2075SOL    HW2 6282   3.794   0.602   2.633
 2076SOL     OW 6283   0.054   0.517   3.864
 2076SOL    HW1 6284   4.951   0.558   3.830
 2076SOL    HW2 6285   0.117   0.524   3.793
 2077SOL     OW 6286   0.091   4.127   3.457
 2077SOL    HW1 6287   0.060   4.083   3.536
 2077SOL    HW2 6288   0.123   4.212   3.488
 2078SOL     OW 6289   0.014   1.877   0.685
 2078SOL    HW1 6290   0.019   1.802   0.626
 2078SOL    HW2 6291   0.097   1.877   0.732
 2079SOL     OW 6292   0.709   3.167   1.541
 2079SOL    HW1 6293   0.617   3.148   1.558
 2079SOL    HW2 6294   0.724   3.134   1.452
 2080SOL     OW 6295   3.233   4.337   2.523
 2080SOL    HW1 6296   3.241   4.348   2.618
 2080SOL    HW2 6297   3.151   4.379   2.501
 2081SOL     OW 6298   3.407   4.485   4.835
 2081SOL    HW1 6299   3.446   4.547   4.774
 2081SOL    HW2 6300   3.321   4.464   4.798
 2082SOL     OW 6301   0.690   4.898   4.502
 2082SOL    HW1 6302   0.768   4.952   4.513
 2082SOL    HW2 6303   0.625   4.957   4.465
 2083SOL     OW 6304   0.231   4.413   4.277
 2083SOL    HW1 6305   0.145   4.386   4.244
 2083SOL    HW2 6306   0.293   4.362   4.226
 2084SOL     OW 6307   3.373   4.299   1.568
 2084SOL    HW1 6308   3.410   4.385   1.549
 2084SOL    HW2 6309   3.281   4.316   1.587
 2085SOL     OW 6310   2.751   3.275   3.473
 2085SOL    HW1 6311   2.795   3.317   3.399
 2085SOL    HW2 6312   2.796   3.308   3.551
 2086SOL     OW 6313   2.091   0.946   0.193
 2086SOL    HW1 6314   2.139   0.870   0.228
 2086SOL    HW2 6315   2.157   1.015   0.189
 2087SOL     OW 6316   2.602   0.924   4.874
 2087SOL    HW1 6317   2.604   1.009   4.919
 2087SOL    HW2 6318   2.682   0.880   4.902
 2088SOL     OW 6319   3.294   1.610   2.344
 2088SOL    HW1 6320   3.350   1.547   2.388
 2088SOL    HW2 6321   3.287   1.577   2.254
 2089SOL     OW 6322   1.105   2.885   2.883
 2089SOL    HW1 6323   1.131   2.936   2.960
 2089SOL    HW2 6324   1.153   2.802   2.892
 2090SOL     OW 6325   3.647   0.451   0.006
 2090SOL    HW1 6326   3.686   0.496   0.081
 2090SOL    HW2 6327   3.680   0.498   4.906
 2091SOL     OW 6328   0.277   3.821   1.172
 2091SOL    HW1 6329   0.264   3.911   1.202
 2091SOL    HW2 6330   0.222   3.768   1.230
 2092SOL     OW 6331   3.852   1.233   0.579
 2092SOL    HW1 6332   3.908   1.156   0.587
 2092SOL    HW2 6333   3.865   1.263   0.489
 2093SOL     OW 6334   2.245   0.190   0.078
 2093SOL    HW1 6335   2.249   0.277   0.037
 2093SOL    HW2 6336   2.333   0.175   0.112
 2094SOL     OW 6337   2.305   2.577   3.775
 2094SOL    HW1 6338   2.357   2.653   3.799
 2094SOL    HW2 6339   2.311   2.573   3.679
 2095SOL     OW 6340   3.863   1.782   3.396
 2095SOL    HW1 6341   3.858   1.839   3.320
 2095SOL    HW2 6342   3.933   1.719   3.376
 2096SOL     OW 6343   3.363   2.731   0.871
 2096SOL    HW1 6344   3.436   2.758   0.926
 2096SOL    HW2 6345   3.385   2.764   0.784
 2097SOL     OW 6346   1.543   4.795   2.718
 2097SOL    HW1 6347   1.544   4.707   2.681
 2097SOL    HW2 6348   1.450   4.815   2.731
 2098SOL     OW 6349   2.208   4.554   2.749
 2098SOL    HW1 6350   2.269   4.625   2.772
 2098SOL    HW2 6351   2.248   4.512   2.672
 2099SOL     OW 6352   2.478   2.394   3.886
 2099SOL    HW1 6353   2.420   2.447   3.832
 2099SOL    HW2 6354   2.524   2.338   3.825
 2100SOL     OW 6355   3.731   4.107   1.684
 2100SOL    HW1 6356   3.671   4.157   1.738
 2100SOL    HW2 6357   3.690   4.021   1.675
 2101SOL     OW 6358   4.274   1.063   2.902
 2101SOL    HW1 6359   4.264   1.155   2.876
 2101SOL    HW2 6360   4.241   1.060   2.992
 2102SOL     OW 6361   2.003   3.898   3.946
 2102SOL    HW1 6362   1.937   3.967   3.935
 2102SOL    HW2 6363   2.075   3.940   3.993
 2103SOL     OW 6364   4.796   4.569   1.935
 2103SOL    HW1 6365   4.822   4.538   2.021
 2103SOL    HW2 6366   4.878   4.596   1.893
 2104SOL     OW 6367   1.289   0.927   3.587
 2104SOL    HW1 6368   1.265   0.834   3.585
 2104SOL    HW2 6369   1.206   0.973   3.594
 2105SOL     OW 6370   3.037   1.323   2.489
 2105SOL    HW1 6371   3.024   1.286   2.402
 2105SOL    HW2 6372   2.966   1.386   2.500
 2106SOL     OW 6373   0.226   0.237   3.728
 2106SOL    HW1 6374   0.202   0.206   3.815
 2106SOL    HW2 6375   0.149   0.220   3.675
 2107SOL     OW 6376   0.049   0.822   2.869
 2107SOL    HW1 6377   0.066   0.857   2.781
 2107SOL    HW2 6378   0.131   0.833   2.916
 2108SOL     OW 6379   4.515   3.005   4.218
 2108SOL    HW1 6380   4.575   2.963   4.280
 2108SOL    HW2 6381   4.503   2.940   4.148
 2109SOL     OW 6382   0.220   0.727   1.095
 2109SOL    HW1 6383   0.197   0.691   1.009
 2109SOL    HW2 6384   0.182   0.815   1.094
 2110SOL     OW 6385   2.253   3.883   0.649
 2110SOL    HW1 6386   2.333   3.837   0.623
 2110SOL    HW2 6387   2.199   3.885   0.570
 2111SOL     OW 6388   1.479   3.035   4.560
 2111SOL    HW1 6389   1.407   3.006   4.504
 2111SOL    HW2 6390   1.507   2.955   4.606
 2112SOL     OW 6391   4.589   3.422   1.785
 2112SOL    HW1 6392   4.662   3.452   1.731
 2112SOL    HW2 6393   4.541   3.502   1.807
 2113SOL     OW 6394   2.976   1.944   1.260
 2113SOL    HW1 6395   3.033   1.868   1.273
 2113SOL    HW2 6396   2.889   1.907   1.246
 2114SOL     OW 6397   2.301   1.889   2.323
 2114SOL    HW1 6398   2.292   1.970   2.372
 2114SOL    HW2 6399   2.309   1.916   2.232
 2115SOL     OW 6400   4.100   0.196   3.930
 2115SOL    HW1 6401   4.077   0.272   3.876
 2115SOL    HW2 6402   4.121   0.127   3.867
 2116SOL     OW 6403   3.583   1.341   2.988
 2116SOL    HW1 6404   3.579   1.249   2.963
 2116SOL    HW2 6405   3.667   1.372   2.953
 2117SOL     OW 6406   2.585   4.372   3.586
 2117SOL    HW1 6407   2.640   4.441   3.550
 2117SOL    HW2 6408   2.634   4.338   3.661
 2118SOL     OW 6409   0.607   3.829   1.623
 2118SOL    HW1 6410   0.631   3.848   1.533
 2118SOL    HW2 6411   0.584   3.914   1.660
 2119SOL     OW 6412   0.952   4.034   2.833
 2119SOL    HW1 6413   0.932   3.954   2.881
 2119SOL    HW2 6414   0.885   4.039   2.765
 2120SOL     OW 6415   4.975   4.760   2.616
 2120SOL    HW1 6416   0.049   4.808   2.681
 2120SOL    HW2 6417   4.962   4.673   2.654
 2121SOL     OW 6418   1.077   3.890   2.414
 2121SOL    HW1 6419   1.087   3.985   2.424
 2121SOL    HW2 6420   1.143   3.865   2.350
 2122SOL     OW 6421   3.680   1.990   0.856
 2122SOL    HW1 6422   3.694   1.936   0.778
 2122SOL    HW2 6423   3.591   2.023   0.846
 2123SOL     OW 6424   1.659   3.886   3.546
 2123SOL    HW1 6425   1.575   3.903   3.503
 2123SOL    HW2 6426   1.650   3.798   3.583
 2124SOL     OW 6427   1.320   3.153   2.093
 2124SOL    HW1 6428   1.285   3.198   2.016
 2124SOL    HW2 6429   1.358   3.222   2.146
 2125SOL     OW 6430   4.564   3.403   3.019
 2125SOL    HW1 6431   4.474   3.397   3.052
 2125SOL    HW2 6432   4.569   3.337   2.950
 2126SOL     OW 6433   0.835   2.274   4.032
 2126SOL    HW1 6434   0.751   2.227   4.032
 2126SOL    HW2 6435   0.889   2.225   4.094
 2127SOL     OW 6436   3.919   0.659   2.239
 2127SOL    HW1 6437   3.951   0.573   2.265
 2127SOL    HW2 6438   3.827   0.645   2.215
 2128SOL     OW 6439   3.145   4.089   0.431
 2128SOL    HW1 6440   3.219   4.125   0.480
 2128SOL    HW2 6441   3.069   4.103   0.487
 2129SOL     OW 6442   2.215   1.414   2.784
 2129SOL    HW1 6443   2.120   1.422   2.771
 2129SOL    HW2 6444   2.240   1.339   2.729
 2130SOL     OW 6445   1.123   3.650   1.975
 2130SOL    HW1 6446   1.213   3.647   2.010
 2130SOL    HW2 6447   1.092   3.737   2.000
 2131SOL     OW 6448   2.266   0.736   3.857
 2131SOL    HW1 6449   2.297   0.763   3.771
 2131SOL    HW2 6450   2.171   0.746   3.853
 2132SOL     OW 6451   2.008   4.015   1.442
 2132SOL    HW1 6452   1.959   3.971   1.511
 2132SOL    HW2 6453   1.952   4.088   1.415
 2133SOL     OW 6454   4.382   0.193   2.339
 2133SOL    HW1 6455   4.346   0.178   2.251
 2133SOL    HW2 6456   4.476   0.178   2.329
 2134SOL     OW 6457   2.166   4.348   4.428
 2134SOL    HW1 6458   2.109   4.304   4.491
 2134SOL    HW2 6459   2.133   4.437   4.424
 2135SOL     OW 6460   1.503   0.465   2.992
 2135SOL    HW1 6461   1.568   0.411   3.038
 2135SOL    HW2 6462   1.428   0.468   3.051
 2136SOL     OW 6463   4.671   3.606   2.568
 2136SOL    HW1 6464   4.687   3.700   2.571
 2136SOL    HW2 6465   4.704   3.573   2.652
 2137SOL     OW 6466   1.638   1.362   2.463
 2137SOL    HW1 6467   1.567   1.425   2.452
 2137SOL    HW2 6468   1.640   1.343   2.556
 2138SOL     OW 6469   3.020   1.538   3.263
 2138SOL    HW1 6470   2.969   1.467   3.224
 2138SOL    HW2 6471   2.957   1.586   3.316
 2139SOL     OW 6472   2.660   3.879   2.433
 2139SOL    HW1 6473   2.608   3.859   2.355
 2139SOL    HW2 6474   2.747   3.846   2.412
 2140SOL     OW 6475   0.532   1.738   1.753
 2140SOL    HW1 6476   0.466   1.686   1.798
 2140SOL    HW2 6477   0.599   1.675   1.726
 2141SOL     OW 6478   1.531   4.869   4.265
 2141SOL    HW1 6479   1.542   4.776   4.285
 2141SOL    HW2 6480   1.560   4.877   4.174
 2142SOL     OW 6481   4.457   3.706   0.620
 2142SOL    HW1 6482   4.373   3.731   0.582
 2142SOL    HW2 6483   4.492   3.640   0.560
 2143SOL     OW 6484   3.227   4.173   0.663
 2143SOL    HW1 6485   3.229   4.215   0.749
 2143SOL    HW2 6486   3.319   4.158   0.641
 2144SOL     OW 6487   0.061   2.888   4.702
 2144SOL    HW1 6488   0.051   2.856   4.792
 2144SOL    HW2 6489   0.125   2.958   4.709
 2145SOL     OW 6490   2.408   3.798   1.498
 2145SOL    HW1 6491   2.486   3.849   1.524
 2145SOL    HW2 6492   2.439   3.743   1.427
 2146SOL     OW 6493   1.059   0.391   1.958
 2146SOL    HW1 6494   0.980   0.415   1.910
 2146SOL    HW2 6495   1.035   0.311   2.005
 2147SOL     OW 6496   2.837   0.825   4.972
 2147SOL    HW1 6497   2.784   0.746   0.008
 2147SOL    HW2 6498   2.924   0.800   0.024
 2148SOL     OW 6499   4.578   0.886   3.610
 2148SOL    HW1 6500   4.496   0.840   3.592
 2148SOL    HW2 6501   4.623   0.889   3.525
 2149SOL     OW 6502   0.789   0.685   4.624
 2149SOL    HW1 6503   0.787   0.596   4.659
 2149SOL    HW2 6504   0.744   0.679   4.540
 2150SOL     OW 6505   4.420   2.843   2.437
 2150SOL    HW1 6506   4.350   2.781   2.418
 2150SOL    HW2 6507   4.423   2.900   2.360
 2151SOL     OW 6508   2.747   3.508   1.505
 2151SOL    HW1 6509   2.694   3.530   1.428
 2151SOL    HW2 6510   2.705   3.557   1.577
 2152SOL     OW 6511   2.814   3.332   2.077
 2152SOL    HW1 6512   2.728   3.288   2.075
 2152SOL    HW2 6513   2.877   3.260   2.082
 2153SOL     OW 6514   4.712   4.641   0.183
 2153SOL    HW1 6515   4.669   4.619   0.266
 2153SOL    HW2 6516   4.644   4.684   0.131
 2154SOL     OW 6517   2.179   4.658   4.403
 2154SOL    HW1 6518   2.261   4.634   4.446
 2154SOL    HW2 6519   2.147   4.733   4.453
 2155SOL     OW 6520   0.797   0.844   4.886
 2155SOL    HW1 6521   0.719   0.792   4.903
 2155SOL    HW2 6522   0.802   0.850   4.790
 2156SOL     OW 6523   1.883   0.280   3.460
 2156SOL    HW1 6524   1.886   0.185   3.446
 2156SOL    HW2 6525   1.792   0.299   3.479
 2157SOL     OW 6526   2.186   3.611   1.245
 2157SOL    HW1 6527   2.106   3.562   1.226
 2157SOL    HW2 6528   2.214   3.578   1.331
 2158SOL     OW 6529   4.692   3.142   3.965
 2158SOL    HW1 6530   4.625   3.211   3.967
 2158SOL    HW2 6531   4.775   3.190   3.966
 2159SOL     OW 6532   4.840   4.119   4.372
 2159SOL    HW1 6533   4.770   4.142   4.311
 2159SOL    HW2 6534   4.853   4.025   4.359
 2160SOL     OW 6535   0.965   0.160   4.760
 2160SOL    HW1 6536   0.935   0.233   4.814
 2160SOL    HW2 6537   1.060   0.174   4.750
 2161SOL     OW 6538   0.636   0.477   0.111
 2161SOL    HW1 6539   0.588   0.560   0.114
 2161SOL    HW2 6540   0.716   0.494   0.160
 2162SOL     OW 6541   4.118   0.168   0.851
 2162SOL    HW1 6542   4.196   0.114   0.835
 2162SOL    HW2 6543   4.122   0.189   0.945
 2163SOL     OW 6544   0.062   4.106   0.164
 2163SOL    HW1 6545   0.152   4.133   0.182
 2163SOL    HW2 6546   0.008   4.173   0.206
 2164SOL     OW 6547   3.390   3.302   0.398
 2164SOL    HW1 6548   3.425   3.341   0.478
 2164SOL    HW2 6549   3.425   3.213   0.398
 2165SOL     OW 6550   1.427   2.286   2.786
 2165SOL    HW1 6551   1.501   2.291   2.847
 2165SOL    HW2 6552   1.361   2.234   2.833
 2166SOL     OW 6553   3.925   3.364   4.910
 2166SOL    HW1 6554   4.017   3.348   4.890
 2166SOL    HW2 6555   3.877   3.302   4.856
 2167SOL     OW 6556   4.916   2.896   1.924
 2167SOL    HW1 6557   4.968   2.908   2.004
 2167SOL    HW2 6558   4.913   2.801   1.912
 2168SOL     OW 6559   3.608   2.513   0.938
 2168SOL    HW1 6560   3.532   2.554   0.979
 2168SOL    HW2 6561   3.578   2.425   0.916
 2169SOL     OW 6562   1.613   3.223   4.293
 2169SOL    HW1 6563   1.577   3.254   4.376
 2169SOL    HW2 6564   1.690   3.278   4.278
 2170SOL     OW 6565   2.597   0.095   1.185
 2170SOL    HW1 6566   2.682   0.118   1.147
 2170SOL    HW2 6567   2.533   0.141   1.131
 2171SOL     OW 6568   3.173   3.404   4.674
 2171SOL    HW1 6569   3.079   3.420   4.685
 2171SOL    HW2 6570   3.213   3.490   4.682
 2172SOL     OW 6571   2.854   3.363   1.720
 2172SOL    HW1 6572   2.834   3.394   1.632
 2172SOL    HW2 6573   2.770   3.368   1.766
 2173SOL     OW 6574   3.864   1.072   3.616
 2173SOL    HW1 6575   3.807   0.995   3.626
 2173SOL    HW2 6576   3.921   1.049   3.543
 2174SOL     OW 6577   4.834   2.779   2.609
 2174SOL    HW1 6578   4.798   2.867   2.594
 2174SOL    HW2 6579   4.758   2.721   2.599
 2175SOL     OW 6580   2.958   3.984   4.375
 2175SOL    HW1 6581   2.935   3.894   4.397
 2175SOL    HW2 6582   2.908   4.004   4.296
 2176SOL     OW 6583   4.838   4.369   3.209
 2176SOL    HW1 6584   4.792   4.436   3.260
 2176SOL    HW2 6585   4.930   4.381   3.231
 2177SOL     OW 6586   4.482   3.487   4.396
 2177SOL    HW1 6587   4.468   3.399   4.362
 2177SOL    HW2 6588   4.546   3.476   4.466
 2178SOL     OW 6589   0.161   0.690   1.751
 2178SOL    HW1 6590   0.179   0.762   1.691
 2178SOL    HW2 6591   0.149   0.614   1.693
 2179SOL     OW 6592   1.198   1.921   2.230
 2179SOL    HW1 6593   1.128   1.983   2.209
 2179SOL    HW2 6594   1.153   1.851   2.278
 2180SOL     OW 6595   1.073   1.134   4.163
 2180SOL    HW1 6596   1.129   1.211   4.154
 2180SOL    HW2 6597   1.040   1.139   4.253
 2181SOL     OW 6598   3.396   4.166   2.007
 2181SOL    HW1 6599   3.453   4.180   1.931
 2181SOL    HW2 6600   3.347   4.248   2.016
 2182SOL     OW 6601   3.689   0.348   0.506
 2182SOL    HW1 6602   3.614   0.400   0.479
 2182SOL    HW2 6603   3.653   0.280   0.562
 2183SOL     OW 6604   3.534   1.733   3.025
 2183SOL    HW1 6605   3.444   1.751   3.000
 2183SOL    HW2 6606   3.583   1.739   2.943
 2184SOL     OW 6607   0.876   1.080   0.318
 2184SOL    HW1 6608   0.927   1.158   0.300
 2184SOL    HW2 6609   0.927   1.008   0.282
 2185SOL     OW 6610   4.803   0.309   3.723
 2185SOL    HW1 6611   4.867   0.269   3.664
 2185SOL    HW2 6612   4.797   0.400   3.694
 2186SOL     OW 6613   1.618   3.975   4.583
 2186SOL    HW1 6614   1.559   3.904   4.609
 2186SOL    HW2 6615   1.560   4.042   4.547
 2187SOL     OW 6616   2.191   3.354   3.458
 2187SOL    HW1 6617   2.133   3.289   3.499
 2187SOL    HW2 6618   2.275   3.308   3.448
 2188SOL     OW 6619   3.007   4.064   0.163
 2188SOL    HW1 6620   3.079   4.045   0.223
 2188SOL    HW2 6621   2.932   4.019   0.201
 2189SOL     OW 6622   2.772   0.686   0.304
 2189SOL    HW1 6623   2.800   0.595   0.302
 2189SOL    HW2 6624   2.682   0.685   0.272
 2190SOL     OW 6625   0.314   4.635   3.152
 2190SOL    HW1 6626   0.295   4.581   3.228
 2190SOL    HW2 6627   0.410   4.639   3.148
 2191SOL     OW 6628   2.158   1.580   4.177
 2191SOL    HW1 6629   2.098   1.505   4.174
 2191SOL    HW2 6630   2.218   1.565   4.105
 2192SOL     OW 6631   4.252   0.380   3.556
 2192SOL    HW1 6632   4.193   0.433   3.610
 2192SOL    HW2 6633   4.219   0.291   3.565
 2193SOL     OW 6634   3.380   1.005   1.938
 2193SOL    HW1 6635   3.427   0.934   1.893
 2193SOL    HW2 6636   3.296   1.010   1.892
 2194SOL     OW 6637   0.361   4.196   0.113
 2194SOL    HW1 6638   0.435   4.163   0.165
 2194SOL    HW2 6639   0.397   4.272   0.066
 2195SOL     OW 6640   3.955   1.499   0.919
 2195SOL    HW1 6641   3.973   1.500   1.013
 2195SOL    HW2 6642   4.036   1.468   0.879
 2196SOL     OW 6643   4.259   0.015   4.396
 2196SOL    HW1 6644   4.352   0.011   4.417
 2196SOL    HW2 6645   4.256   0.019   4.300
 2197SOL     OW 6646   1.292   2.263   1.821
 2197SOL    HW1 6647   1.351   2.239   1.750
 2197SOL    HW2 6648   1.242   2.184   1.840
 2198SOL     OW 6649   1.879   0.224   0.604
 2198SOL    HW1 6650   1.907   0.134   0.624
 2198SOL    HW2 6651   1.904   0.237   0.513
 2199SOL     OW 6652   4.877   1.168   2.709
 2199SOL    HW1 6653   4.919   1.254   2.716
 2199SOL    HW2 6654   4.791   1.181   2.749
 2200SOL     OW 6655   3.173   2.580   4.370
 2200SOL    HW1 6656   3.235   2.647   4.398
 2200SOL    HW2 6657   3.229   2.512   4.330
 2201SOL     OW 6658   1.858   3.682   4.003
 2201SOL    HW1 6659   1.910   3.761   3.987
 2201SOL    HW2 6660   1.882   3.622   3.933
 2202SOL     OW 6661   1.474   3.835   0.351
 2202SOL    HW1 6662   1.427   3.891   0.412
 2202SOL    HW2 6663   1.566   3.857   0.366
 2203SOL     OW 6664   2.895   1.178   4.598
 2203SOL    HW1 6665   2.890   1.219   4.685
 2203SOL    HW2 6666   2.987   1.188   4.573
 2204SOL     OW 6667   0.731   4.201   2.728
 2204SOL    HW1 6668   0.775   4.221   2.645
 2204SOL    HW2 6669   0.694   4.113   2.715
 2205SOL     OW 6670   4.073   1.777   2.093
 2205SOL    HW1 6671   4.042   1.694   2.129
 2205SOL    HW2 6672   4.168   1.777   2.108
 2206SOL     OW 6673   3.071   3.192   2.118
 2206SOL    HW1 6674   3.136   3.154   2.178
 2206SOL    HW2 6675   3.123   3.241   2.055
 2207SOL     OW 6676   4.593   3.375   2.405
 2207SOL    HW1 6677   4.509   3.335   2.384
 2207SOL    HW2 6678   4.573   3.443   2.470
 2208SOL     OW 6679   0.203   0.406   4.729
 2208SOL    HW1 6680   0.173   0.412   4.819
 2208SOL    HW2 6681   0.132   0.362   4.682
 2209SOL     OW 6682   2.956   2.877   4.309
 2209SOL    HW1 6683   2.922   2.855   4.222
 2209SOL    HW2 6684   3.051   2.879   4.297
 2210SOL     OW 6685   1.842   2.202   3.943
 2210SOL    HW1 6686   1.915   2.260   3.963
 2210SOL    HW2 6687   1.882   2.116   3.928
 2211SOL     OW 6688   4.393   1.936   0.503
 2211SOL    HW1 6689   4.326   1.877   0.537
 2211SOL    HW2 6690   4.461   1.937   0.570
 2212SOL     OW 6691   2.263   1.790   1.395
 2212SOL    HW1 6692   2.205   1.770   1.468
 2212SOL    HW2 6693   2.204   1.813   1.323
 2213SOL     OW 6694   1.698   1.425   0.163
 2213SOL    HW1 6695   1.765   1.434   0.094
 2213SOL    HW2 6696   1.615   1.427   0.115
 2214SOL     OW 6697   4.232   1.638   1.683
 2214SOL    HW1 6698   4.250   1.718   1.732
 2214SOL    HW2 6699   4.162   1.663   1.622
 2215SOL     OW 6700   0.435   2.444   3.482
 2215SOL    HW1 6701   0.492   2.427   3.406
 2215SOL    HW2 6702   0.494   2.442   3.557
 2216SOL     OW 6703   4.059   0.502   4.768
 2216SOL    HW1 6704   4.136   0.515   4.712
 2216SOL    HW2 6705   4.023   0.418   4.739
 2217SOL     OW 6706   1.863   0.612   0.816
 2217SOL    HW1 6707   1.855   0.532   0.867
 2217SOL    HW2 6708   1.782   0.617   0.766
 2218SOL     OW 6709   2.021   3.153   3.547
 2218SOL    HW1 6710   2.053   3.125   3.462
 2218SOL    HW2 6711   1.937   3.109   3.557
 2219SOL     OW 6712   1.704   4.508   3.892
 2219SOL    HW1 6713   1.748   4.437   3.939
 2219SOL    HW2 6714   1.667   4.466   3.814
 2220SOL     OW 6715   4.447   1.103   2.690
 2220SOL    HW1 6716   4.537   1.121   2.719
 2220SOL    HW2 6717   4.400   1.079   2.770
 2221SOL     OW 6718   3.593   2.386   2.037
 2221SOL    HW1 6719   3.559   2.308   2.079
 2221SOL    HW2 6720   3.687   2.382   2.051
 2222SOL     OW 6721   3.044   1.879   3.514
 2222SOL    HW1 6722   3.033   1.972   3.493
 2222SOL    HW2 6723   3.138   1.862   3.502
 2223SOL     OW 6724   0.512   1.506   3.317
 2223SOL    HW1 6725   0.463   1.556   3.252
 2223SOL    HW2 6726   0.453   1.498   3.391
 2224SOL     OW 6727   0.337   3.212   4.098
 2224SOL    HW1 6728   0.422   3.212   4.142
 2224SOL    HW2 6729   0.286   3.277   4.146
 2225SOL     OW 6730   3.784   4.005   4.508
 2225SOL    HW1 6731   3.809   4.005   4.415
 2225SOL    HW2 6732   3.716   4.071   4.514
 2226SOL     OW 6733   1.268   1.406   1.046
 2226SOL    HW1 6734   1.320   1.486   1.058
 2226SOL    HW2 6735   1.319   1.338   1.090
 2227SOL     OW 6736   2.816   1.287   2.108
 2227SOL    HW1 6737   2.742   1.293   2.049
 2227SOL    HW2 6738   2.802   1.357   2.173
 2228SOL     OW 6739   3.385   2.820   0.597
 2228SOL    HW1 6740   3.473   2.801   0.563
 2228SOL    HW2 6741   3.329   2.755   0.555
 2229SOL     OW 6742   4.634   1.258   2.828
 2229SOL    HW1 6743   4.684   1.243   2.909
 2229SOL    HW2 6744   4.646   1.351   2.810
 2230SOL     OW 6745   0.845   3.599   3.687
 2230SOL    HW1 6746   0.843   3.525   3.627
 2230SOL    HW2 6747   0.922   3.585   3.741
 2231SOL     OW 6748   2.267   2.005   1.142
 2231SOL    HW1 6749   2.226   2.052   1.214
 2231SOL    HW2 6750   2.359   2.032   1.145
 2232SOL     OW 6751   0.103   4.421   3.269
 2232SOL    HW1 6752   0.163   4.374   3.211
 2232SOL    HW2 6753   0.157   4.446   3.344
 2233SOL     OW 6754   2.235   4.271   1.051
 2233SOL    HW1 6755   2.293   4.196   1.042
 2233SOL    HW2 6756   2.148   4.232   1.067
 2234SOL     OW 6757   1.601   2.406   4.936
 2234SOL    HW1 6758   1.599   2.318   4.975
 2234SOL    HW2 6759   1.622   2.464   0.033
 2235SOL     OW 6760   3.110   1.995   2.492
 2235SOL    HW1 6761   3.084   2.012   2.582
 2235SOL    HW2 6762   3.029   1.998   2.442
 2236SOL     OW 6763   2.885   1.665   3.469
 2236SOL    HW1 6764   2.844   1.652   3.555
 2236SOL    HW2 6765   2.944   1.739   3.482
 2237SOL     OW 6766   0.996   4.822   0.466
 2237SOL    HW1 6767   1.079   4.774   0.463
 2237SOL    HW2 6768   1.006   4.880   0.542
 2238SOL     OW 6769   0.574   0.011   3.885
 2238SOL    HW1 6770   0.664   4.964   3.864
 2238SOL    HW2 6771   0.555   4.941   3.967
 2239SOL     OW 6772   4.894   0.250   0.442
 2239SOL    HW1 6773   4.881   0.344   0.430
 2239SOL    HW2 6774   4.907   0.216   0.354
 2240SOL     OW 6775   0.438   1.947   3.923
 2240SOL    HW1 6776   0.456   1.978   3.834
 2240SOL    HW2 6777   0.402   2.022   3.968
 2241SOL     OW 6778   1.293   0.596   3.424
 2241SOL    HW1 6779   1.299   0.563   3.513
 2241SOL    HW2 6780   1.206   0.635   3.418
 2242SOL     OW 6781   1.285   2.138   1.466
 2242SOL    HW1 6782   1.261   2.094   1.385
 2242SOL    HW2 6783   1.355   2.085   1.503
 2243SOL     OW 6784   0.109   2.026   3.649
 2243SOL    HW1 6785   0.024   2.014   3.608
 2243SOL    HW2 6786   0.095   2.004   3.741
 2244SOL     OW 6787   4.545   4.932   3.914
 2244SOL    HW1 6788   4.603   4.953   3.987
 2244SOL    HW2 6789   4.491   4.860   3.946
 2245SOL     OW 6790   4.148   4.055   2.918
 2245SOL    HW1 6791   4.132   4.139   2.873
 2245SOL    HW2 6792   4.190   4.080   3.000
 2246SOL     OW 6793   3.750   0.926   4.163
 2246SOL    HW1 6794   3.659   0.952   4.149
 2246SOL    HW2 6795   3.752   0.891   4.252
 2247SOL     OW 6796   2.046   3.656   4.737
 2247SOL    HW1 6797   2.016   3.747   4.741
 2247SOL    HW2 6798   1.982   3.607   4.788
 2248SOL     OW 6799   3.138   4.009   3.432
 2248SOL    HW1 6800   3.117   4.029   3.341
 2248SOL    HW2 6801   3.233   3.998   3.433
 2249SOL     OW 6802   2.187   1.639   1.624
 2249SOL    HW1 6803   2.127   1.565   1.633
 2249SOL    HW2 6804   2.272   1.599   1.607
 2250SOL     OW 6805   3.063   2.136   3.438
 2250SOL    HW1 6806   3.136   2.108   3.492
 2250SOL    HW2 6807   3.082   2.227   3.416
 2251SOL     OW 6808   3.300   3.315   4.899
 2251SOL    HW1 6809   3.262   3.341   4.815
 2251SOL    HW2 6810   3.254   3.369   4.964
 2252SOL     OW 6811   1.346   4.679   2.362
 2252SOL    HW1 6812   1.419   4.696   2.422
 2252SOL    HW2 6813   1.329   4.763   2.320
 2253SOL     OW 6814   2.703   4.869   1.895
 2253SOL    HW1 6815   2.719   4.932   1.824
 2253SOL    HW2 6816   2.625   4.903   1.939
 2254SOL     OW 6817   1.118   3.472   4.192
 2254SOL    HW1 6818   1.127   3.457   4.286
 2254SOL    HW2 6819   1.023   3.473   4.177
 2255SOL     OW 6820   0.927   3.301   3.173
 2255SOL    HW1 6821   0.916   3.243   3.097
 2255SOL    HW2 6822   0.961   3.243   3.242
 2256SOL     OW 6823   0.678   1.787   3.158
 2256SOL    HW1 6824   0.638   1.821   3.078
 2256SOL    HW2 6825   0.606   1.782   3.221
 2257SOL     OW 6826   0.901   4.369   0.089
 2257SOL    HW1 6827   0.978   4.316   0.111
 2257SOL    HW2 6828   0.935   4.459   0.087
 2258SOL     OW 6829   0.932   3.087   0.004
 2258SOL    HW1 6830   1.015   3.039   0.000
 2258SOL    HW2 6831   0.918   3.103   0.098
 2259SOL     OW 6832   4.851   2.559   0.512
 2259SOL    HW1 6833   4.889   2.538   0.597
 2259SOL    HW2 6834   4.927   2.575   0.456
 2260SOL     OW 6835   4.953   0.796   4.135
 2260SOL    HW1 6836   0.026   0.805   4.217
 2260SOL    HW2 6837   0.034   0.836   4.069
 2261SOL     OW 6838   1.729   2.465   2.009
 2261SOL    HW1 6839   1.788   2.540   2.008
 2261SOL    HW2 6840   1.698   2.457   1.919
 2262SOL     OW 6841   3.307   3.080   0.830
 2262SOL    HW1 6842   3.257   3.019   0.776
 2262SOL    HW2 6843   3.398   3.061   0.810
 2263SOL     OW 6844   2.529   3.364   0.070
 2263SOL    HW1 6845   2.617   3.339   0.041
 2263SOL    HW2 6846   2.514   3.450   0.030
 2264SOL     OW 6847   4.245   1.435   0.945
 2264SOL    HW1 6848   4.220   1.484   1.024
 2264SOL    HW2 6849   4.297   1.362   0.979
 2265SOL     OW 6850   0.424   0.218   2.490
 2265SOL    HW1 6851   0.379   0.302   2.478
 2265SOL    HW2 6852   0.498   0.222   2.430
 2266SOL     OW 6853   1.600   1.923   2.665
 2266SOL    HW1 6854   1.561   1.979   2.598
 2266SOL    HW2 6855   1.682   1.965   2.687
 2267SOL     OW 6856   2.098   1.087   3.001
 2267SOL    HW1 6857   2.074   1.176   2.978
 2267SOL    HW2 6858   2.059   1.032   2.933
 2268SOL     OW 6859   4.693   1.891   0.018
 2268SOL    HW1 6860   4.758   1.880   4.925
 2268SOL    HW2 6861   4.609   1.884   4.949
 2269SOL     OW 6862   3.646   2.829   1.674
 2269SOL    HW1 6863   3.625   2.747   1.720
 2269SOL    HW2 6864   3.741   2.826   1.662
 2270SOL     OW 6865   3.210   0.644   3.323
 2270SOL    HW1 6866   3.134   0.627   3.378
 2270SOL    HW2 6867   3.182   0.619   3.234
 2271SOL     OW 6868   4.214   2.779   1.403
 2271SOL    HW1 6869   4.251   2.733   1.478
 2271SOL    HW2 6870   4.161   2.849   1.441
 2272SOL     OW 6871   0.820   3.989   3.492
 2272SOL    HW1 6872   0.877   4.054   3.452
 2272SOL    HW2 6873   0.851   3.905   3.458
 2273SOL     OW 6874   2.025   0.354   1.166
 2273SOL    HW1 6875   2.113   0.379   1.193
 2273SOL    HW2 6876   1.981   0.330   1.247
 2274SOL     OW 6877   4.165   2.982   4.154
 2274SOL    HW1 6878   4.093   2.946   4.101
 2274SOL    HW2 6879   4.230   3.011   4.090
 2275SOL     OW 6880   3.935   1.985   0.926
 2275SOL    HW1 6881   3.963   2.050   0.989
 2275SOL    HW2 6882   3.842   2.004   0.911
 2276SOL     OW 6883   1.355   2.023   4.802
 2276SOL    HW1 6884   1.370   1.934   4.836
 2276SOL    HW2 6885   1.441   2.064   4.806
 2277SOL     OW 6886   4.357   3.372   4.769
 2277SOL    HW1 6887   4.351   3.454   4.719
 2277SOL    HW2 6888   4.376   3.306   4.703
 2278SOL     OW 6889   1.993   2.781   0.184
 2278SOL    HW1 6890   2.072   2.733   0.206
 2278SOL    HW2 6891   1.947   2.791   0.267
 2279SOL     OW 6892   2.657   1.836   3.053
 2279SOL    HW1 6893   2.743   1.879   3.060
 2279SOL    HW2 6894   2.678   1.744   3.037
 2280SOL     OW 6895   3.498   3.687   4.878
 2280SOL    HW1 6896   3.429   3.626   4.903
 2280SOL    HW2 6897   3.543   3.645   4.804
 2281SOL     OW 6898   3.981   3.885   3.114
 2281SOL    HW1 6899   3.891   3.915   3.126
 2281SOL    HW2 6900   4.024   3.959   3.070
 2282SOL     OW 6901   1.535   2.555   1.795
 2282SOL    HW1 6902   1.600   2.609   1.750
 2282SOL    HW2 6903   1.451   2.592   1.767
 2283SOL     OW 6904   1.219   1.199   2.834
 2283SOL    HW1 6905   1.126   1.193   2.858
 2283SOL    HW2 6906   1.237   1.116   2.790
 2284SOL     OW 6907   2.769   0.205   3.189
 2284SOL    HW1 6908   2.737   0.214   3.279
 2284SOL    HW2 6909   2.745   0.288   3.147
 2285SOL     OW 6910   2.537   3.491   2.672
 2285SOL    HW1 6911   2.571   3.413   2.627
 2285SOL    HW2 6912   2.598   3.504   2.745
 2286SOL     OW 6913   3.373   3.757   1.661
 2286SOL    HW1 6914   3.281   3.775   1.678
 2286SOL    HW2 6915   3.398   3.694   1.729
 2287SOL     OW 6916   2.216   3.870   1.692
 2287SOL    HW1 6917   2.256   3.797   1.644
 2287SOL    HW2 6918   2.122   3.855   1.685
 2288SOL     OW 6919   4.965   3.459   2.955
 2288SOL    HW1 6920   4.936   3.445   3.045
 2288SOL    HW2 6921   4.888   3.492   2.909
 2289SOL     OW 6922   2.189   3.996   0.874
 2289SOL    HW1 6923   2.212   3.954   0.791
 2289SOL    HW2 6924   2.094   3.996   0.875
 2290SOL     OW 6925   1.301   0.538   2.231
 2290SOL    HW1 6926   1.365   0.597   2.191
 2290SOL    HW2 6927   1.226   0.539   2.171
 2291SOL     OW 6928   0.346   3.451   0.718
 2291SOL    HW1 6929   0.332   3.357   0.708
 2291SOL    HW2 6930   0.298   3.491   0.645
 2292SOL     OW 6931   4.922   0.108   2.304
 2292SOL    HW1 6932   4.828   0.090   2.302
 2292SOL    HW2 6933   4.929   0.201   2.324
 2293SOL     OW 6934   2.925   2.493   4.371
 2293SOL    HW1 6935   3.007   2.541   4.380
 2293SOL    HW2 6936   2.868   2.531   4.439
 2294SOL     OW 6937   3.276   1.902   0.499
 2294SOL    HW1 6938   3.275   1.918   0.404
 2294SOL    HW2 6939   3.208   1.959   0.534
 2295SOL     OW 6940   0.338   1.184   2.536
 2295SOL    HW1 6941   0.334   1.278   2.556
 2295SOL    HW2 6942   0.252   1.163   2.500
 2296SOL     OW 6943   1.411   3.392   2.609
 2296SOL    HW1 6944   1.323   3.392   2.572
 2296SOL    HW2 6945   1.468   3.418   2.537
 2297SOL     OW 6946   1.370   1.888   1.604
 2297SOL    HW1 6947   1.309   1.935   1.660
 2297SOL    HW2 6948   1.442   1.863   1.663
 2298SOL     OW 6949   2.843   0.395   2.548
 2298SOL    HW1 6950   2.794   0.314   2.534
 2298SOL    HW2 6951   2.894   0.379   2.627
 2299SOL     OW 6952   4.483   0.491   1.613
 2299SOL    HW1 6953   4.520   0.518   1.697
 2299SOL    HW2 6954   4.404   0.443   1.636
 2300SOL     OW 6955   0.996   0.803   0.998
 2300SOL    HW1 6956   1.025   0.783   0.909
 2300SOL    HW2 6957   0.983   0.898   0.998
 2301SOL     OW 6958   1.156   3.347   4.867
 2301SOL    HW1 6959   1.173   3.268   4.816
 2301SOL    HW2 6960   1.156   3.418   4.803
 2302SOL     OW 6961   4.172   3.738   1.994
 2302SOL    HW1 6962   4.242   3.802   1.982
 2302SOL    HW2 6963   4.141   3.753   2.083
 2303SOL     OW 6964   3.778   1.553   3.917
 2303SOL    HW1 6965   3.788   1.478   3.858
 2303SOL    HW2 6966   3.724   1.520   3.988
 2304SOL     OW 6967   1.072   2.104   0.299
 2304SOL    HW1 6968   1.162   2.073   0.293
 2304SOL    HW2 6969   1.077   2.196   0.273
 2305SOL     OW 6970   1.078   1.536   1.600
 2305SOL    HW1 6971   0.982   1.541   1.604
 2305SOL    HW2 6972   1.107   1.588   1.675
 2306SOL     OW 6973   4.804   2.301   4.027
 2306SOL    HW1 6974   4.862   2.321   3.954
 2306SOL    HW2 6975   4.744   2.376   4.031
 2307SOL     OW 6976   4.219   2.816   1.147
 2307SOL    HW1 6977   4.143   2.758   1.146
 2307SOL    HW2 6978   4.260   2.800   1.232
 2308SOL     OW 6979   1.826   2.196   1.863
 2308SOL    HW1 6980   1.813   2.273   1.919
 2308SOL    HW2 6981   1.916   2.203   1.833
 2309SOL     OW 6982   3.051   3.721   0.716
 2309SOL    HW1 6983   3.139   3.741   0.747
 2309SOL    HW2 6984   3.044   3.765   0.631
 2310SOL     OW 6985   4.083   4.783   2.289
 2310SOL    HW1 6986   4.097   4.811   2.199
 2310SOL    HW2 6987   4.166   4.741   2.315
 2311SOL     OW 6988   3.150   1.414   1.092
 2311SOL    HW1 6989   3.240   1.405   1.063
 2311SOL    HW2 6990   3.114   1.326   1.089
 2312SOL     OW 6991   3.397   1.291   4.583
 2312SOL    HW1 6992   3.409   1.257   4.494
 2312SOL    HW2 6993   3.327   1.237   4.620
 2313SOL     OW 6994   2.169   2.873   2.852
 2313SOL    HW1 6995   2.098   2.926   2.887
 2313SOL    HW2 6996   2.185   2.807   2.920
 2314SOL     OW 6997   4.021   2.555   3.514
 2314SOL    HW1 6998   3.929   2.550   3.540
 2314SOL    HW2 6999   4.032   2.485   3.451
 2315SOL     OW 7000   2.099   2.556   2.818
 2315SOL    HW1 7001   2.146   2.474   2.833
 2315SOL    HW2 7002   2.007   2.534   2.834
 2316SOL     OW 7003   0.612   0.953   2.113
 2316SOL    HW1 7004   0.525   0.930   2.146
 2316SOL    HW2 7005   0.626   0.893   2.040
 2317SOL     OW 7006   1.089   4.222   3.927
 2317SOL    HW1 7007   1.181   4.193   3.928
 2317SOL    HW2 7008   1.060   4.207   3.837
 2318SOL     OW 7009   0.679   3.239   3.919
 2318SOL    HW1 7010   0.757   3.189   3.895
 2318SOL    HW2 7011   0.626   3.241   3.839
 2319SOL     OW 7012   3.242   2.772   2.458
 2319SOL    HW1 7013   3.312   2.820   2.502
 2319SOL    HW2 7014   3.166   2.831   2.463
 2320SOL     OW 7015   1.919   3.978   3.026
 2320SOL    HW1 7016   1.976   4.004   3.099
 2320SOL    HW2 7017   1.854   3.920   3.066
 2321SOL     OW 7018   3.656   3.599   3.360
 2321SOL    HW1 7019   3.689   3.668   3.418
 2321SOL    HW2 7020   3.619   3.534   3.420
 2322SOL     OW 7021   3.050   1.437   1.815
 2322SOL    HW1 7022   3.049   1.389   1.898
 2322SOL    HW2 7023   3.100   1.516   1.834
 2323SOL     OW 7024   3.964   1.713   2.496
 2323SOL    HW1 7025   4.044   1.742   2.453
 2323SOL    HW2 7026   3.916   1.665   2.428
 2324SOL     OW 7027   4.363   2.282   1.709
 2324SOL    HW1 7028   4.424   2.346   1.746
 2324SOL    HW2 7029   4.413   2.237   1.641
 2325SOL     OW 7030   1.259   1.784   3.590
 2325SOL    HW1 7031   1.177   1.736   3.603
 2325SOL    HW2 7032   1.304   1.736   3.520
 2326SOL     OW 7033   1.137   4.343   4.789
 2326SOL    HW1 7034   1.203   4.274   4.790
 2326SOL    HW2 7035   1.176   4.415   4.838
 2327SOL     OW 7036   1.250   2.429   2.025
 2327SOL    HW1 7037   1.189   2.373   2.074
 2327SOL    HW2 7038   1.273   2.377   1.948
 2328SOL     OW 7039   1.188   3.852   1.245
 2328SOL    HW1 7040   1.181   3.893   1.159
 2328SOL    HW2 7041   1.105   3.872   1.288
 2329SOL     OW 7042   2.790   1.590   3.043
 2329SOL    HW1 7043   2.707   1.556   3.008
 2329SOL    HW2 7044   2.837   1.511   3.072
 2330SOL     OW 7045   4.419   4.346   1.747
 2330SOL    HW1 7046   4.468   4.292   1.684
 2330SOL    HW2 7047   4.480   4.416   1.770
 2331SOL     OW 7048   4.752   0.863   2.975
 2331SOL    HW1 7049   4.735   0.872   2.882
 2331SOL    HW2 7050   4.848   0.862   2.983
 2332SOL     OW 7051   4.068   3.039   2.550
 2332SOL    HW1 7052   3.990   3.092   2.533
 2332SOL    HW2 7053   4.072   2.977   2.477
 2333SOL     OW 7054   0.573   3.788   1.998
 2333SOL    HW1 7055   0.539   3.818   2.082
 2333SOL    HW2 7056   0.625   3.711   2.019
 2334SOL     OW 7057   2.881   2.901   0.667
 2334SOL    HW1 7058   2.942   2.876   0.736
 2334SOL    HW2 7059   2.835   2.977   0.702
 2335SOL     OW 7060   2.520   0.678   2.448
 2335SOL    HW1 7061   2.517   0.583   2.445
 2335SOL    HW2 7062   2.477   0.706   2.367
 2336SOL     OW 7063   4.188   3.333   0.211
 2336SOL    HW1 7064   4.185   3.392   0.135
 2336SOL    HW2 7065   4.102   3.343   0.252
 2337SOL     OW 7066   1.058   0.289   3.705
 2337SOL    HW1 7067   0.973   0.285   3.748
 2337SOL    HW2 7068   1.039   0.271   3.613
 2338SOL     OW 7069   1.338   4.003   1.897
 2338SOL    HW1 7070   1.426   3.966   1.908
 2338SOL    HW2 7071   1.306   3.964   1.815
 2339SOL     OW 7072   3.725   4.691   1.387
 2339SOL    HW1 7073   3.723   4.765   1.448
 2339SOL    HW2 7074   3.813   4.656   1.394
 2340SOL     OW 7075   4.559   4.578   1.750
 2340SOL    HW1 7076   4.638   4.575   1.804
 2340SOL    HW2 7077   4.575   4.648   1.687
 2341SOL     OW 7078   1.880   1.071   1.307
 2341SOL    HW1 7079   1.962   1.119   1.299
 2341SOL    HW2 7080   1.872   1.024   1.224
 2342SOL     OW 7081   2.660   0.965   0.496
 2342SOL    HW1 7082   2.746   0.999   0.521
 2342SOL    HW2 7083   2.679   0.878   0.460
 2343SOL     OW 7084   4.604   3.845   4.713
 2343SOL    HW1 7085   4.520   3.887   4.733
 2343SOL    HW2 7086   4.662   3.918   4.693
 2344SOL     OW 7087   3.618   1.173   3.486
 2344SOL    HW1 7088   3.711   1.190   3.473
 2344SOL    HW2 7089   3.575   1.206   3.407
 2345SOL     OW 7090   3.573   0.402   3.165
 2345SOL    HW1 7091   3.514   0.400   3.089
 2345SOL    HW2 7092   3.586   0.496   3.183
 2346SOL     OW 7093   3.271   0.570   0.592
 2346SOL    HW1 7094   3.195   0.536   0.543
 2346SOL    HW2 7095   3.258   0.539   0.681
 2347SOL     OW 7096   2.921   4.058   0.873
 2347SOL    HW1 7097   3.009   4.049   0.908
 2347SOL    HW2 7098   2.869   4.090   0.946
 2348SOL     OW 7099   4.121   2.424   1.836
 2348SOL    HW1 7100   4.130   2.348   1.779
 2348SOL    HW2 7101   4.046   2.472   1.800
 2349SOL     OW 7102   0.840   2.311   4.589
 2349SOL    HW1 7103   0.900   2.326   4.516
 2349SOL    HW2 7104   0.755   2.339   4.556
 2350SOL     OW 7105   1.746   0.043   3.867
 2350SOL    HW1 7106   1.822   0.006   3.912
 2350SOL    HW2 7107   1.778   0.124   3.828
 2351SOL     OW 7108   0.034   3.653   0.288
 2351SOL    HW1 7109   4.971   3.566   0.276
 2351SOL    HW2 7110   4.937   3.709   0.312
 2352SOL     OW 7111   2.280   0.361   4.604
 2352SOL    HW1 7112   2.307   0.450   4.626
 2352SOL    HW2 7113   2.207   0.342   4.663
 2353SOL     OW 7114   2.006   1.742   0.735
 2353SOL    HW1 7115   2.026   1.742   0.641
 2353SOL    HW2 7116   2.076   1.793   0.775
 2354SOL     OW 7117   1.686   3.871   3.136
 2354SOL    HW1 7118   1.654   3.782   3.126
 2354SOL    HW2 7119   1.617   3.926   3.098
 2355SOL     OW 7120   2.903   1.627   2.095
 2355SOL    HW1 7121   2.854   1.598   2.172
 2355SOL    HW2 7122   2.852   1.594   2.021
 2356SOL     OW 7123   3.308   2.633   1.601
 2356SOL    HW1 7124   3.330   2.717   1.641
 2356SOL    HW2 7125   3.371   2.571   1.639
 2357SOL     OW 7126   0.893   0.224   1.179
 2357SOL    HW1 7127   0.904   0.314   1.212
 2357SOL    HW2 7128   0.868   0.235   1.088
 2358SOL     OW 7129   1.893   0.279   4.167
 2358SOL    HW1 7130   1.861   0.366   4.191
 2358SOL    HW2 7131   1.982   0.294   4.135
 2359SOL     OW 7132   1.816   0.241   2.332
 2359SOL    HW1 7133   1.769   0.202   2.405
 2359SOL    HW2 7134   1.853   0.321   2.368
 2360SOL     OW 7135   2.917   1.350   3.739
 2360SOL    HW1 7136   2.850   1.355   3.672
 2360SOL    HW2 7137   2.870   1.363   3.822
 2361SOL     OW 7138   2.754   2.228   0.380
 2361SOL    HW1 7139   2.713   2.211   0.465
 2361SOL    HW2 7140   2.801   2.311   0.392
 2362SOL     OW 7141   0.978   1.440   1.278
 2362SOL    HW1 7142   1.033   1.362   1.270
 2362SOL    HW2 7143   0.897   1.408   1.318
 2363SOL     OW 7144   0.679   2.720   0.420
 2363SOL    HW1 7145   0.662   2.811   0.444
 2363SOL    HW2 7146   0.699   2.723   0.327
 2364SOL     OW 7147   0.650   2.709   3.698
 2364SOL    HW1 7148   0.693   2.647   3.639
 2364SOL    HW2 7149   0.722   2.758   3.738
 2365SOL     OW 7150   0.059   2.217   3.375
 2365SOL    HW1 7151   0.002   2.156   3.422
 2365SOL    HW2 7152   0.082   2.283   3.440
 2366SOL     OW 7153   2.898   3.614   4.050
 2366SOL    HW1 7154   2.979   3.575   4.016
 2366SOL    HW2 7155   2.847   3.539   4.081
 2367SOL     OW 7156   1.930   3.955   3.651
 2367SOL    HW1 7157   1.837   3.943   3.632
 2367SOL    HW2 7158   1.940   3.927   3.743
 2368SOL     OW 7159   1.993   4.162   1.135
 2368SOL    HW1 7160   1.954   4.168   1.222
 2368SOL    HW2 7161   2.019   4.070   1.127
 2369SOL     OW 7162   1.872   1.441   3.764
 2369SOL    HW1 7163   1.948   1.497   3.782
 2369SOL    HW2 7164   1.906   1.351   3.772
 2370SOL     OW 7165   1.528   2.261   4.180
 2370SOL    HW1 7166   1.482   2.200   4.237
 2370SOL    HW2 7167   1.568   2.206   4.112
 2371SOL     OW 7168   3.009   4.336   0.572
 2371SOL    HW1 7169   2.947   4.383   0.628
 2371SOL    HW2 7170   3.084   4.319   0.629
 2372SOL     OW 7171   4.262   2.332   1.163
 2372SOL    HW1 7172   4.271   2.320   1.068
 2372SOL    HW2 7173   4.193   2.398   1.172
 2373SOL     OW 7174   2.393   0.934   0.396
 2373SOL    HW1 7175   2.360   1.015   0.434
 2373SOL    HW2 7176   2.479   0.922   0.436
 2374SOL     OW 7177   1.752   3.548   1.060
 2374SOL    HW1 7178   1.783   3.628   1.018
 2374SOL    HW2 7179   1.679   3.519   1.005
 2375SOL     OW 7180   1.211   3.867   4.710
 2375SOL    HW1 7181   1.290   3.833   4.750
 2375SOL    HW2 7182   1.143   3.857   4.777
 2376SOL     OW 7183   0.537   3.213   1.009
 2376SOL    HW1 7184   0.482   3.246   1.079
 2376SOL    HW2 7185   0.552   3.121   1.031
 2377SOL     OW 7186   3.623   0.862   1.414
 2377SOL    HW1 7187   3.549   0.810   1.383
 2377SOL    HW2 7188   3.685   0.862   1.342
 2378SOL     OW 7189   0.008   4.392   3.879
 2378SOL    HW1 7190   0.102   4.375   3.870
 2378SOL    HW2 7191   0.002   4.486   3.895
 2379SOL     OW 7192   2.467   1.226   1.128
 2379SOL    HW1 7193   2.521   1.170   1.071
 2379SOL    HW2 7194   2.399   1.259   1.070
 2380SOL     OW 7195   3.497   3.061   3.257
 2380SOL    HW1 7196   3.567   3.011   3.214
 2380SOL    HW2 7197   3.427   2.997   3.271
 2381SOL     OW 7198   4.963   4.297   1.746
 2381SOL    HW1 7199   4.975   4.268   1.655
 2381SOL    HW2 7200   0.025   4.227   1.799
 2382SOL     OW 7201   1.993   4.506   3.734
 2382SOL    HW1 7202   2.019   4.509   3.827
 2382SOL    HW2 7203   1.918   4.447   3.732
 2383SOL     OW 7204   2.208   1.754   0.036
 2383SOL    HW1 7205   2.123   1.784   0.070
 2383SOL    HW2 7206   2.187   1.713   4.929
 2384SOL     OW 7207   4.321   1.106   3.396
 2384SOL    HW1 7208   4.336   1.020   3.434
 2384SOL    HW2 7209   4.408   1.145   3.389
 2385SOL     OW 7210   3.141   0.573   1.446
 2385SOL    HW1 7211   3.072   0.562   1.511
 2385SOL    HW2 7212   3.200   0.499   1.461
 2386SOL     OW 7213   2.419   1.519   1.562
 2386SOL    HW1 7214   2.382   1.474   1.486
 2386SOL    HW2 7215   2.510   1.534   1.539
 2387SOL     OW 7216   2.865   4.948   2.344
 2387SOL    HW1 7217   2.826   4.905   2.267
 2387SOL    HW2 7218   2.951   0.001   2.314
 2388SOL     OW 7219   2.161   0.966   2.557
 2388SOL    HW1 7220   2.197   1.052   2.580
 2388SOL    HW2 7221   2.186   0.954   2.466
 2389SOL     OW 7222   1.214   2.083   4.145
 2389SOL    HW1 7223   1.234   2.176   4.146
 2389SOL    HW2 7224   1.141   2.073   4.206
 2390SOL     OW 7225   1.906   4.563   1.058
 2390SOL    HW1 7226   1.908   4.624   1.132
 2390SOL    HW2 7227   1.924   4.617   0.981
 2391SOL     OW 7228   4.776   3.101   1.784
 2391SOL    HW1 7229   4.824   3.023   1.811
 2391SOL    HW2 7230   4.762   3.149   1.865
 2392SOL     OW 7231   2.322   2.917   0.370
 2392SOL    HW1 7232   2.357   2.965   0.445
 2392SOL    HW2 7233   2.302   2.830   0.404
 2393SOL     OW 7234   3.963   4.340   2.901
 2393SOL    HW1 7235   4.022   4.353   2.974
 2393SOL    HW2 7236   3.908   4.266   2.927
 2394SOL     OW 7237   1.343   3.115   4.198
 2394SOL    HW1 7238   1.401   3.173   4.246
 2394SOL    HW2 7239   1.377   3.028   4.214
 2395SOL     OW 7240   3.737   4.877   1.680
 2395SOL    HW1 7241   3.800   4.823   1.726
 2395SOL    HW2 7242   3.741   4.962   1.723
 2396SOL     OW 7243   1.810   3.160   0.605
 2396SOL    HW1 7244   1.870   3.221   0.647
 2396SOL    HW2 7245   1.791   3.199   0.520
 2397SOL     OW 7246   1.396   3.389   4.416
 2397SOL    HW1 7247   1.301   3.404   4.419
 2397SOL    HW2 7248   1.433   3.477   4.427
 2398SOL     OW 7249   2.793   0.136   3.558
 2398SOL    HW1 7250   2.743   0.096   3.629
 2398SOL    HW2 7251   2.837   0.063   3.515
 2399SOL     OW 7252   2.786   4.690   1.681
 2399SOL    HW1 7253   2.742   4.735   1.753
 2399SOL    HW2 7254   2.877   4.718   1.686
 2400SOL     OW 7255   3.777   0.146   4.503
 2400SOL    HW1 7256   3.782   0.087   4.428
 2400SOL    HW2 7257   3.699   0.117   4.551
 2401SOL     OW 7258   2.323   0.622   0.718
 2401SOL    HW1 7259   2.362   0.536   0.722
 2401SOL    HW2 7260   2.396   0.682   0.704
 2402SOL     OW 7261   2.243   4.006   4.057
 2402SOL    HW1 7262   2.299   4.002   3.980
 2402SOL    HW2 7263   2.304   4.014   4.131
 2403SOL     OW 7264   0.742   3.349   0.894
 2403SOL    HW1 7265   0.662   3.308   0.926
 2403SOL    HW2 7266   0.752   3.316   0.804
 2404SOL     OW 7267   0.376   2.616   4.596
 2404SOL    HW1 7268   0.361   2.536   4.546
 2404SOL    HW2 7269   0.308   2.616   4.663
 2405SOL     OW 7270   3.619   3.503   2.491
 2405SOL    HW1 7271   3.695   3.452   2.521
 2405SOL    HW2 7272   3.554   3.491   2.561
 2406SOL     OW 7273   4.330   1.105   3.716
 2406SOL    HW1 7274   4.247   1.097   3.763
 2406SOL    HW2 7275   4.353   1.015   3.693
 2407SOL     OW 7276   1.553   0.708   2.885
 2407SOL    HW1 7277   1.596   0.766   2.947
 2407SOL    HW2 7278   1.561   0.621   2.924
 2408SOL     OW 7279   1.911   4.730   1.281
 2408SOL    HW1 7280   1.852   4.787   1.232
 2408SOL    HW2 7281   1.871   4.721   1.367
 2409SOL     OW 7282   4.785   4.636   3.944
 2409SOL    HW1 7283   4.811   4.728   3.940
 2409SOL    HW2 7284   4.792   4.613   4.036
 2410SOL     OW 7285   0.858   2.117   4.272
 2410SOL    HW1 7286   0.914   2.120   4.349
 2410SOL    HW2 7287   0.848   2.024   4.252
 2411SOL     OW 7288   3.537   1.718   1.873
 2411SOL    HW1 7289   3.545   1.811   1.891
 2411SOL    HW2 7290   3.519   1.678   1.958
 2412SOL     OW 7291   2.721   3.827   0.984
 2412SOL    HW1 7292   2.789   3.888   0.956
 2412SOL    HW2 7293   2.732   3.751   0.926
 2413SOL     OW 7294   0.816   0.280   3.841
 2413SOL    HW1 7295   0.778   0.235   3.917
 2413SOL    HW2 7296   0.743   0.330   3.804
 2414SOL     OW 7297   0.987   2.584   4.404
 2414SOL    HW1 7298   1.059   2.535   4.444
 2414SOL    HW2 7299   1.030   2.643   4.342
 2415SOL     OW 7300   2.042   2.391   2.104
 2415SOL    HW1 7301   1.964   2.407   2.157
 2415SOL    HW2 7302   2.091   2.474   2.108
 2416SOL     OW 7303   0.555   0.155   0.905
 2416SOL    HW1 7304   0.631   0.211   0.897
 2416SOL    HW2 7305   0.497   0.201   0.966
 2417SOL     OW 7306   1.617   2.737   0.468
 2417SOL    HW1 7307   1.628   2.738   0.563
 2417SOL    HW2 7308   1.524   2.719   0.455
 2418SOL     OW 7309   1.148   0.452   1.066
 2418SOL    HW1 7310   1.222   0.506   1.093
 2418SOL    HW2 7311   1.082   0.465   1.135
 2419SOL     OW 7312   4.246   0.389   4.147
 2419SOL    HW1 7313   4.324   0.345   4.182
 2419SOL    HW2 7314   4.202   0.322   4.095
 2420SOL     OW 7315   2.614   3.677   3.542
 2420SOL    HW1 7316   2.568   3.745   3.592
 2420SOL    HW2 7317   2.705   3.685   3.570
 2421SOL     OW 7318   0.223   3.749   0.118
 2421SOL    HW1 7319   0.306   3.704   0.132
 2421SOL    HW2 7320   0.159   3.696   0.167
 2422SOL     OW 7321   3.201   4.272   0.914
 2422SOL    HW1 7322   3.259   4.280   0.990
 2422SOL    HW2 7323   3.176   4.362   0.893
 2423SOL     OW 7324   2.797   4.607   3.050
 2423SOL    HW1 7325   2.751   4.690   3.061
 2423SOL    HW2 7326   2.817   4.603   2.956
 2424SOL     OW 7327   3.582   3.163   2.256
 2424SOL    HW1 7328   3.635   3.223   2.204
 2424SOL    HW2 7329   3.603   3.185   2.347
 2425SOL     OW 7330   1.577   3.938   2.226
 2425SOL    HW1 7331   1.563   4.008   2.162
 2425SOL    HW2 7332   1.631   3.978   2.295
 2426SOL     OW 7333   1.157   3.959   3.131
 2426SOL    HW1 7334   1.220   3.995   3.193
 2426SOL    HW2 7335   1.188   3.870   3.113
 2427SOL     OW 7336   3.966   0.228   2.674
 2427SOL    HW1 7337   3.929   0.158   2.727
 2427SOL    HW2 7338   3.896   0.253   2.614
 2428SOL     OW 7339   3.700   4.407   2.770
 2428SOL    HW1 7340   3.787   4.412   2.809
 2428SOL    HW2 7341   3.712   4.438   2.680
 2429SOL     OW 7342   0.550   3.881   3.063
 2429SOL    HW1 7343   0.464   3.908   3.030
 2429SOL    HW2 7344   0.574   3.948   3.127
 2430SOL     OW 7345   3.008   0.477   4.763
 2430SOL    HW1 7346   2.987   0.559   4.808
 2430SOL    HW2 7347   3.098   0.457   4.789
 2431SOL     OW 7348   4.319   1.393   1.296
 2431SOL    HW1 7349   4.378   1.359   1.363
 2431SOL    HW2 7350   4.233   1.357   1.319
 2432SOL     OW 7351   2.891   2.567   1.597
 2432SOL    HW1 7352   2.822   2.607   1.544
 2432SOL    HW2 7353   2.867   2.589   1.687
 2433SOL     OW 7354   2.761   1.284   0.977
 2433SOL    HW1 7355   2.672   1.250   0.967
 2433SOL    HW2 7356   2.789   1.252   1.063
 2434SOL     OW 7357   0.102   0.141   1.685
 2434SOL    HW1 7358   0.046   0.180   1.618
 2434SOL    HW2 7359   0.167   0.208   1.705
 2435SOL     OW 7360   4.428   2.948   1.753
 2435SOL    HW1 7361   4.412   2.945   1.658
 2435SOL    HW2 7362   4.469   2.864   1.773
 2436SOL     OW 7363   4.696   3.654   2.273
 2436SOL    HW1 7364   4.722   3.653   2.365
 2436SOL    HW2 7365   4.650   3.570   2.261
 2437SOL     OW 7366   1.989   0.417   3.918
 2437SOL    HW1 7367   1.926   0.345   3.928
 2437SOL    HW2 7368   2.041   0.392   3.842
 2438SOL     OW 7369   4.041   0.638   0.647
 2438SOL    HW1 7370   4.112   0.607   0.590
 2438SOL    HW2 7371   4.086   0.678   0.722
 2439SOL     OW 7372   3.968   0.413   2.366
 2439SOL    HW1 7373   4.008   0.327   2.378
 2439SOL    HW2 7374   3.999   0.465   2.440
 2440SOL     OW 7375   2.100   2.983   3.816
 2440SOL    HW1 7376   2.104   3.075   3.838
 2440SOL    HW2 7377   2.013   2.955   3.845
 2441SOL     OW 7378   1.874   2.839   0.413
 2441SOL    HW1 7379   1.933   2.872   0.481
 2441SOL    HW2 7380   1.794   2.817   0.459
 2442SOL     OW 7381   1.085   3.210   3.671
 2442SOL    HW1 7382   1.026   3.231   3.744
 2442SOL    HW2 7383   1.124   3.126   3.695
 2443SOL     OW 7384   3.693   1.862   1.445
 2443SOL    HW1 7385   3.612   1.855   1.395
 2443SOL    HW2 7386   3.762   1.855   1.379
 2444SOL     OW 7387   4.555   2.593   4.517
 2444SOL    HW1 7388   4.609   2.569   4.442
 2444SOL    HW2 7389   4.601   2.558   4.593
 2445SOL     OW 7390   3.627   2.768   0.450
 2445SOL    HW1 7391   3.658   2.679   0.432
 2445SOL    HW2 7392   3.664   2.789   0.535
 2446SOL     OW 7393   4.845   2.134   3.569
 2446SOL    HW1 7394   4.778   2.065   3.565
 2446SOL    HW2 7395   4.800   2.209   3.608
 2447SOL     OW 7396   0.580   3.405   2.508
 2447SOL    HW1 7397   0.487   3.386   2.523
 2447SOL    HW2 7398   0.603   3.469   2.575
 2448SOL     OW 7399   3.955   3.494   2.196
 2448SOL    HW1 7400   3.905   3.574   2.182
 2448SOL    HW2 7401   4.038   3.523   2.235
 2449SOL     OW 7402   3.916   3.848   3.401
 2449SOL    HW1 7403   3.942   3.815   3.316
 2449SOL    HW2 7404   3.977   3.919   3.420
 2450SOL     OW 7405   0.236   1.498   4.605
 2450SOL    HW1 7406   0.210   1.585   4.576
 2450SOL    HW2 7407   0.331   1.502   4.610
 2451SOL     OW 7408   4.257   0.307   4.450
 2451SOL    HW1 7409   4.260   0.212   4.462
 2451SOL    HW2 7410   4.341   0.329   4.411
 2452SOL     OW 7411   2.835   1.769   3.907
 2452SOL    HW1 7412   2.868   1.857   3.925
 2452SOL    HW2 7413   2.805   1.772   3.816
 2453SOL     OW 7414   1.981   1.314   0.450
 2453SOL    HW1 7415   2.034   1.337   0.373
 2453SOL    HW2 7416   1.911   1.258   0.415
 2454SOL     OW 7417   4.449   0.319   2.884
 2454SOL    HW1 7418   4.422   0.363   2.965
 2454SOL    HW2 7419   4.372   0.269   2.857
 2455SOL     OW 7420   2.517   4.911   0.406
 2455SOL    HW1 7421   2.608   4.937   0.394
 2455SOL    HW2 7422   2.517   4.816   0.397
 2456SOL     OW 7423   1.569   2.858   4.924
 2456SOL    HW1 7424   1.589   2.830   4.835
 2456SOL    HW2 7425   1.548   2.777   4.970
 2457SOL     OW 7426   0.536   1.041   2.999
 2457SOL    HW1 7427   0.555   1.064   2.908
 2457SOL    HW2 7428   0.550   1.123   3.048
 2458SOL     OW 7429   1.807   0.832   3.754
 2458SOL    HW1 7430   1.727   0.847   3.804
 2458SOL    HW2 7431   1.865   0.785   3.814
 2459SOL     OW 7432   4.155   2.543   4.094
 2459SOL    HW1 7433   4.112   2.529   4.010
 2459SOL    HW2 7434   4.163   2.455   4.132
 2460SOL     OW 7435   1.240   1.003   0.681
 2460SOL    HW1 7436   1.219   0.915   0.711
 2460SOL    HW2 7437   1.156   1.049   0.678
 2461SOL     OW 7438   3.904   2.506   3.025
 2461SOL    HW1 7439   3.858   2.474   2.947
 2461SOL    HW2 7440   3.995   2.477   3.013
 2462SOL     OW 7441   0.707   4.667   4.852
 2462SOL    HW1 7442   0.639   4.732   4.868
 2462SOL    HW2 7443   0.787   4.719   4.839
 2463SOL     OW 7444   0.633   3.524   2.242
 2463SOL    HW1 7445   0.703   3.556   2.186
 2463SOL    HW2 7446   0.647   3.430   2.248
 2464SOL     OW 7447   3.401   2.116   2.589
 2464SOL    HW1 7448   3.380   2.032   2.548
 2464SOL    HW2 7449   3.431   2.171   2.517
 2465SOL     OW 7450   1.397   0.129   4.599
 2465SOL    HW1 7451   1.449   0.087   4.668
 2465SOL    HW2 7452   1.460   0.146   4.529
 2466SOL     OW 7453   2.034   3.875   1.214
 2466SOL    HW1 7454   2.073   3.788   1.223
 2466SOL    HW2 7455   2.052   3.918   1.297
 2467SOL     OW 7456   4.708   2.798   0.545
 2467SOL    HW1 7457   4.758   2.718   0.531
 2467SOL    HW2 7458   4.617   2.772   0.531
 2468SOL     OW 7459   3.306   0.451   2.594
 2468SOL    HW1 7460   3.269   0.375   2.639
 2468SOL    HW2 7461   3.279   0.526   2.647
 2469SOL     OW 7462   1.353   0.937   3.221
 2469SOL    HW1 7463   1.297   1.012   3.200
 2469SOL    HW2 7464   1.418   0.971   3.282
 2470SOL     OW 7465   4.960   1.422   2.778
 2470SOL    HW1 7466   4.968   1.433   2.873
 2470SOL    HW2 7467   0.036   1.493   2.741
 2471SOL     OW 7468   1.934   1.889   2.344
 2471SOL    HW1 7469   1.915   1.837   2.423
 2471SOL    HW2 7470   1.852   1.934   2.325
 2472SOL     OW 7471   0.663   3.699   4.894
 2472SOL    HW1 7472   0.677   3.606   4.876
 2472SOL    HW2 7473   0.724   3.745   4.836
 2473SOL     OW 7474   2.182   3.567   1.810
 2473SOL    HW1 7475   2.135   3.483   1.811
 2473SOL    HW2 7476   2.261   3.549   1.759
 2474SOL     OW 7477   1.956   0.583   1.354
 2474SOL    HW1 7478   1.905   0.631   1.420
 2474SOL    HW2 7479   1.893   0.522   1.316
 2475SOL     OW 7480   1.575   2.359   2.231
 2475SOL    HW1 7481   1.589   2.412   2.153
 2475SOL    HW2 7482   1.661   2.358   2.275
 2476SOL     OW 7483   1.315   4.139   2.236
 2476SOL    HW1 7484   1.394   4.173   2.278
 2476SOL    HW2 7485   1.283   4.213   2.184
 2477SOL     OW 7486   4.620   0.968   4.111
 2477SOL    HW1 7487   4.581   1.007   4.033
 2477SOL    HW2 7488   4.638   0.877   4.087
 2478SOL     OW 7489   3.028   1.001   4.219
 2478SOL    HW1 7490   3.014   0.908   4.201
 2478SOL    HW2 7491   3.039   1.040   4.132
 2479SOL     OW 7492   3.835   2.142   4.841
 2479SOL    HW1 7493   3.791   2.097   4.768
 2479SOL    HW2 7494   3.766   2.155   4.906
 2480SOL     OW 7495   0.024   1.995   1.188
 2480SOL    HW1 7496   4.958   1.922   1.234
 2480SOL    HW2 7497   4.963   2.073   1.229
 2481SOL     OW 7498   4.131   1.748   3.796
 2481SOL    HW1 7499   4.106   1.837   3.773
 2481SOL    HW2 7500   4.210   1.758   3.850
 2482SOL     OW 7501   2.717   0.252   2.200
 2482SOL    HW1 7502   2.633   0.282   2.234
 2482SOL    HW2 7503   2.694   0.199   2.124
 2483SOL     OW 7504   1.177   4.721   3.481
 2483SOL    HW1 7505   1.158   4.720   3.388
 2483SOL    HW2 7506   1.125   4.794   3.516
 2484SOL     OW 7507   3.709   3.909   0.255
 2484SOL    HW1 7508   3.717   3.978   0.190
 2484SOL    HW2 7509   3.772   3.932   0.323
 2485SOL     OW 7510   0.148   4.335   2.432
 2485SOL    HW1 7511   0.128   4.425   2.404
 2485SOL    HW2 7512   0.065   4.288   2.422
 2486SOL     OW 7513   0.226   4.142   1.919
 2486SOL    HW1 7514   0.319   4.166   1.913
 2486SOL    HW2 7515   0.225   4.048   1.903
 2487SOL     OW 7516   0.775   2.858   2.319
 2487SOL    HW1 7517   0.702   2.919   2.328
 2487SOL    HW2 7518   0.771   2.830   2.227
 2488SOL     OW 7519   1.215   4.651   0.560
 2488SOL    HW1 7520   1.245   4.621   0.474
 2488SOL    HW2 7521   1.208   4.571   0.613
 2489SOL     OW 7522   1.573   3.473   2.823
 2489SOL    HW1 7523   1.512   3.447   2.754
 2489SOL    HW2 7524   1.657   3.485   2.779
 2490SOL     OW 7525   0.083   2.933   3.175
 2490SOL    HW1 7526   0.159   2.877   3.192
 2490SOL    HW2 7527   0.101   3.013   3.223
 2491SOL     OW 7528   4.166   4.725   4.390
 2491SOL    HW1 7529   4.198   4.815   4.397
 2491SOL    HW2 7530   4.099   4.728   4.322
 2492SOL     OW 7531   3.151   4.086   2.947
 2492SOL    HW1 7532   3.140   4.181   2.950
 2492SOL    HW2 7533   3.193   4.069   2.863
 2493SOL     OW 7534   3.713   1.956   3.126
 2493SOL    HW1 7535   3.715   2.037   3.076
 2493SOL    HW2 7536   3.648   1.902   3.082
 2494SOL     OW 7537   3.403   2.411   4.510
 2494SOL    HW1 7538   3.361   2.411   4.596
 2494SOL    HW2 7539   3.336   2.380   4.450
 2495SOL     OW 7540   3.386   4.879   3.218
 2495SOL    HW1 7541   3.446   4.806   3.233
 2495SOL    HW2 7542   3.437   4.957   3.236
 2496SOL     OW 7543   1.815   0.513   4.575
 2496SOL    HW1 7544   1.868   0.592   4.565
 2496SOL    HW2 7545   1.730   0.536   4.539
 2497SOL     OW 7546   0.476   0.012   1.466
 2497SOL    HW1 7547   0.418   4.924   1.424
 2497SOL    HW2 7548   0.447   0.014   1.557
 2498SOL     OW 7549   2.761   2.275   1.736
 2498SOL    HW1 7550   2.702   2.342   1.702
 2498SOL    HW2 7551   2.810   2.246   1.659
 2499SOL     OW 7552   4.380   1.015   4.657
 2499SOL    HW1 7553   4.337   1.100   4.668
 2499SOL    HW2 7554   4.313   0.952   4.684
 2500SOL     OW 7555   1.090   2.454   3.533
 2500SOL    HW1 7556   1.068   2.394   3.462
 2500SOL    HW2 7557   1.162   2.410   3.579
 2501SOL     OW 7558   2.103   4.152   0.302
 2501SOL    HW1 7559   2.089   4.161   0.396
 2501SOL    HW2 7560   2.058   4.227   0.263
 2502SOL     OW 7561   3.798   4.975   1.096
 2502SOL    HW1 7562   3.825   0.075   1.147
 2502SOL    HW2 7563   3.728   4.935   1.147
 2503SOL     OW 7564   3.366   4.762   2.888
 2503SOL    HW1 7565   3.416   4.686   2.918
 2503SOL    HW2 7566   3.306   4.781   2.960
 2504SOL     OW 7567   1.701   2.091   0.753
 2504SOL    HW1 7568   1.690   2.037   0.675
 2504SOL    HW2 7569   1.687   2.031   0.826
 2505SOL     OW 7570   0.198   3.024   3.974
 2505SOL    HW1 7571   0.267   3.076   4.013
 2505SOL    HW2 7572   0.219   3.022   3.880
 2506SOL     OW 7573   3.850   2.114   3.337
 2506SOL    HW1 7574   3.833   2.100   3.430
 2506SOL    HW2 7575   3.778   2.070   3.292
 2507SOL     OW 7576   4.509   2.167   2.100
 2507SOL    HW1 7577   4.500   2.241   2.161
 2507SOL    HW2 7578   4.443   2.183   2.033
 2508SOL     OW 7579   0.135   4.386   3.604
 2508SOL    HW1 7580   0.047   4.399   3.639
 2508SOL    HW2 7581   0.185   4.348   3.677
 2509SOL     OW 7582   4.788   0.504   0.355
 2509SOL    HW1 7583   4.777   0.454   0.274
 2509SOL    HW2 7584   4.708   0.555   0.364
 2510SOL     OW 7585   4.881   1.836   2.471
 2510SOL    HW1 7586   4.823   1.873   2.404
 2510SOL    HW2 7587   4.821   1.807   2.540
 2511SOL     OW 7588   2.544   4.274   2.270
 2511SOL    HW1 7589   2.567   4.228   2.189
 2511SOL    HW2 7590   2.449   4.280   2.269
 2512SOL     OW 7591   2.308   2.045   1.533
 2512SOL    HW1 7592   2.308   1.959   1.490
 2512SOL    HW2 7593   2.303   2.108   1.462
 2513SOL     OW 7594   0.619   3.447   1.832
 2513SOL    HW1 7595   0.645   3.481   1.747
 2513SOL    HW2 7596   0.702   3.425   1.876
 2514SOL     OW 7597   0.544   1.704   4.321
 2514SOL    HW1 7598   0.489   1.638   4.279
 2514SOL    HW2 7599   0.535   1.782   4.265
 2515SOL     OW 7600   3.174   3.331   0.864
 2515SOL    HW1 7601   3.257   3.286   0.852
 2515SOL    HW2 7602   3.184   3.376   0.948
 2516SOL     OW 7603   1.014   4.461   1.584
 2516SOL    HW1 7604   1.071   4.461   1.508
 2516SOL    HW2 7605   1.073   4.452   1.659
 2517SOL     OW 7606   2.829   0.330   4.606
 2517SOL    HW1 7607   2.887   0.360   4.675
 2517SOL    HW2 7608   2.884   0.325   4.528
 2518SOL     OW 7609   0.356   3.757   1.849
 2518SOL    HW1 7610   0.398   3.704   1.781
 2518SOL    HW2 7611   0.429   3.785   1.906
 2519SOL     OW 7612   1.617   3.754   3.934
 2519SOL    HW1 7613   1.709   3.757   3.959
 2519SOL    HW2 7614   1.577   3.829   3.979
 2520SOL     OW 7615   1.426   4.182   1.090
 2520SOL    HW1 7616   1.374   4.252   1.128
 2520SOL    HW2 7617   1.364   4.133   1.036
 2521SOL     OW 7618   0.021   1.290   1.899
 2521SOL    HW1 7619   0.041   1.359   1.836
 2521SOL    HW2 7620   4.969   1.336   1.978
 2522SOL     OW 7621   2.143   0.731   0.963
 2522SOL    HW1 7622   2.207   0.668   0.929
 2522SOL    HW2 7623   2.061   0.683   0.966
 2523SOL     OW 7624   0.974   1.659   2.086
 2523SOL    HW1 7625   0.986   1.699   2.172
 2523SOL    HW2 7626   0.896   1.605   2.096
 2524SOL     OW 7627   0.792   0.717   2.440
 2524SOL    HW1 7628   0.778   0.642   2.498
 2524SOL    HW2 7629   0.854   0.685   2.374
 2525SOL     OW 7630   2.543   2.560   0.516
 2525SOL    HW1 7631   2.448   2.544   0.517
 2525SOL    HW2 7632   2.569   2.553   0.608
 2526SOL     OW 7633   2.739   4.579   4.183
 2526SOL    HW1 7634   2.698   4.502   4.222
 2526SOL    HW2 7635   2.666   4.632   4.151
 2527SOL     OW 7636   3.366   2.415   0.032
 2527SOL    HW1 7637   3.432   2.460   4.955
 2527SOL    HW2 7638   3.381   2.447   0.121
 2528SOL     OW 7639   1.688   4.905   2.085
 2528SOL    HW1 7640   1.704   4.948   2.001
 2528SOL    HW2 7641   1.765   4.925   2.138
 2529SOL     OW 7642   2.288   3.516   2.968
 2529SOL    HW1 7643   2.343   3.494   3.043
 2529SOL    HW2 7644   2.343   3.575   2.915
 2530SOL     OW 7645   2.860   4.657   0.372
 2530SOL    HW1 7646   2.845   4.591   0.440
 2530SOL    HW2 7647   2.925   4.616   0.314
 2531SOL     OW 7648   0.994   3.293   3.924
 2531SOL    HW1 7649   1.088   3.279   3.934
 2531SOL    HW2 7650   0.966   3.330   4.007
 2532SOL     OW 7651   2.830   1.966   4.517
 2532SOL    HW1 7652   2.809   1.935   4.429
 2532SOL    HW2 7653   2.925   1.958   4.523
 2533SOL     OW 7654   1.495   0.225   4.106
 2533SOL    HW1 7655   1.462   0.139   4.080
 2533SOL    HW2 7656   1.422   0.285   4.089
 2534SOL     OW 7657   4.617   0.740   2.690
 2534SOL    HW1 7658   4.570   0.667   2.649
 2534SOL    HW2 7659   4.681   0.767   2.623
 2535SOL     OW 7660   4.350   0.014   1.124
 2535SOL    HW1 7661   4.328   4.907   1.166
 2535SOL    HW2 7662   4.294   0.078   1.168
 2536SOL     OW 7663   4.476   4.494   1.255
 2536SOL    HW1 7664   4.402   4.538   1.296
 2536SOL    HW2 7665   4.470   4.404   1.286
 2537SOL     OW 7666   2.620   1.391   0.221
 2537SOL    HW1 7667   2.602   1.452   0.149
 2537SOL    HW2 7668   2.559   1.417   0.290
 2538SOL     OW 7669   4.451   0.146   0.185
 2538SOL    HW1 7670   4.532   0.169   0.139
 2538SOL    HW2 7671   4.402   0.093   0.122
 2539SOL     OW 7672   4.413   2.270   4.805
 2539SOL    HW1 7673   4.361   2.349   4.799
 2539SOL    HW2 7674   4.369   2.217   4.871
 2540SOL     OW 7675   3.269   3.080   1.551
 2540SOL    HW1 7676   3.213   3.032   1.490
 2540SOL    HW2 7677   3.309   3.012   1.606
 2541SOL     OW 7678   1.854   0.689   3.252
 2541SOL    HW1 7679   1.943   0.722   3.242
 2541SOL    HW2 7680   1.828   0.716   3.340
 2542SOL     OW 7681   0.197   0.563   0.008
 2542SOL    HW1 7682   0.104   0.581   4.969
 2542SOL    HW2 7683   0.243   0.617   4.920
 2543SOL     OW 7684   1.660   1.099   0.937
 2543SOL    HW1 7685   1.715   1.028   0.904
 2543SOL    HW2 7686   1.571   1.071   0.918
 2544SOL     OW 7687   2.145   4.526   3.506
 2544SOL    HW1 7688   2.134   4.431   3.504
 2544SOL    HW2 7689   2.105   4.553   3.589
 2545SOL     OW 7690   4.149   3.619   1.295
 2545SOL    HW1 7691   4.164   3.525   1.282
 2545SOL    HW2 7692   4.233   3.660   1.273
 2546SOL     OW 7693   2.740   0.851   2.499
 2546SOL    HW1 7694   2.676   0.789   2.462
 2546SOL    HW2 7695   2.768   0.903   2.424
 2547SOL     OW 7696   4.638   4.187   1.051
 2547SOL    HW1 7697   4.609   4.135   1.126
 2547SOL    HW2 7698   4.731   4.168   1.044
 2548SOL     OW 7699   3.389   1.382   3.399
 2548SOL    HW1 7700   3.435   1.299   3.389
 2548SOL    HW2 7701   3.389   1.420   3.311
 2549SOL     OW 7702   0.165   0.822   2.364
 2549SOL    HW1 7703   0.142   0.856   2.450
 2549SOL    HW2 7704   0.261   0.814   2.365
 2550SOL     OW 7705   1.162   3.254   2.335
 2550SOL    HW1 7706   1.256   3.260   2.315
 2550SOL    HW2 7707   1.138   3.164   2.311
 2551SOL     OW 7708   3.206   2.476   0.899
 2551SOL    HW1 7709   3.220   2.453   0.807
 2551SOL    HW2 7710   3.238   2.566   0.906
 2552SOL     OW 7711   4.172   0.129   3.579
 2552SOL    HW1 7712   4.194   0.095   3.492
 2552SOL    HW2 7713   4.105   0.070   3.612
 2553SOL     OW 7714   1.921   2.932   4.934
 2553SOL    HW1 7715   1.887   3.002   0.014
 2553SOL    HW2 7716   1.937   2.859   0.017
 2554SOL     OW 7717   0.184   2.854   2.792
 2554SOL    HW1 7718   0.126   2.916   2.837
 2554SOL    HW2 7719   0.237   2.909   2.734
 2555SOL     OW 7720   2.178   0.759   4.819
 2555SOL    HW1 7721   2.204   0.739   4.729
 2555SOL    HW2 7722   2.260   0.766   4.867
 2556SOL     OW 7723   2.766   4.235   3.778
 2556SOL    HW1 7724   2.855   4.217   3.807
 2556SOL    HW2 7725   2.764   4.330   3.765
 2557SOL     OW 7726   2.923   2.404   3.593
 2557SOL    HW1 7727   2.966   2.429   3.675
 2557SOL    HW2 7728   2.992   2.412   3.526
 2558SOL     OW 7729   2.277   3.513   0.356
 2558SOL    HW1 7730   2.299   3.437   0.302
 2558SOL    HW2 7731   2.337   3.581   0.326
 2559SOL     OW 7732   3.391   2.463   3.925
 2559SOL    HW1 7733   3.359   2.395   3.864
 2559SOL    HW2 7734   3.482   2.477   3.900
 2560SOL     OW 7735   4.701   1.910   3.871
 2560SOL    HW1 7736   4.683   1.948   3.785
 2560SOL    HW2 7737   4.678   1.818   3.863
 2561SOL     OW 7738   1.509   0.698   1.810
 2561SOL    HW1 7739   1.463   0.626   1.766
 2561SOL    HW2 7740   1.550   0.748   1.738
 2562SOL     OW 7741   1.244   2.853   1.708
 2562SOL    HW1 7742   1.253   2.852   1.803
 2562SOL    HW2 7743   1.197   2.934   1.689
 2563SOL     OW 7744   2.401   3.809   4.670
 2563SOL    HW1 7745   2.444   3.750   4.732
 2563SOL    HW2 7746   2.460   3.813   4.595
 2564SOL     OW 7747   0.639   4.724   0.738
 2564SOL    HW1 7748   0.718   4.756   0.693
 2564SOL    HW2 7749   0.610   4.650   0.685
 2565SOL     OW 7750   3.264   3.786   4.336
 2565SOL    HW1 7751   3.318   3.775   4.414
 2565SOL    HW2 7752   3.298   3.865   4.294
 2566SOL     OW 7753   4.921   2.122   4.265
 2566SOL    HW1 7754   4.910   2.039   4.218
 2566SOL    HW2 7755   4.902   2.189   4.200
 2567SOL     OW 7756   0.381   3.254   3.482
 2567SOL    HW1 7757   0.448   3.216   3.427
 2567SOL    HW2 7758   0.301   3.249   3.429
 2568SOL     OW 7759   4.956   2.458   4.453
 2568SOL    HW1 7760   4.966   2.510   4.533
 2568SOL    HW2 7761   4.906   2.515   4.394
 2569SOL     OW 7762   3.573   4.343   4.367
 2569SOL    HW1 7763   3.607   4.393   4.441
 2569SOL    HW2 7764   3.651   4.307   4.325
 2570SOL     OW 7765   3.186   1.537   2.880
 2570SOL    HW1 7766   3.252   1.591   2.836
 2570SOL    HW2 7767   3.220   1.526   2.969
 2571SOL     OW 7768   2.617   4.294   0.122
 2571SOL    HW1 7769   2.596   4.220   0.178
 2571SOL    HW2 7770   2.627   4.368   0.182
 2572SOL     OW 7771   3.575   2.202   4.905
 2572SOL    HW1 7772   3.558   2.296   4.899
 2572SOL    HW2 7773   3.534   2.165   4.826
 2573SOL     OW 7774   3.860   0.103   2.259
 2573SOL    HW1 7775   3.815   0.033   2.306
 2573SOL    HW2 7776   3.937   0.123   2.313
 2574SOL     OW 7777   1.543   0.223   2.770
 2574SOL    HW1 7778   1.608   0.280   2.812
 2574SOL    HW2 7779   1.462   0.240   2.818
 2575SOL     OW 7780   0.911   2.599   1.025
 2575SOL    HW1 7781   0.979   2.666   1.031
 2575SOL    HW2 7782   0.891   2.593   0.932
 2576SOL     OW 7783   0.065   2.147   1.508
 2576SOL    HW1 7784   4.967   2.203   1.486
 2576SOL    HW2 7785   0.123   2.153   1.433
 2577SOL     OW 7786   0.649   0.202   3.475
 2577SOL    HW1 7787   0.706   0.128   3.494
 2577SOL    HW2 7788   0.596   0.213   3.554
 2578SOL     OW 7789   2.308   1.394   1.329
 2578SOL    HW1 7790   2.226   1.344   1.332
 2578SOL    HW2 7791   2.367   1.338   1.278
 2579SOL     OW 7792   4.751   3.225   2.007
 2579SOL    HW1 7793   4.716   3.312   1.988
 2579SOL    HW2 7794   4.842   3.241   2.031
 2580SOL     OW 7795   0.053   3.557   4.163
 2580SOL    HW1 7796   4.949   3.519   4.127
 2580SOL    HW2 7797   0.123   3.500   4.129
 2581SOL     OW 7798   2.078   4.503   4.003
 2581SOL    HW1 7799   2.152   4.532   4.056
 2581SOL    HW2 7800   2.062   4.413   4.030
 2582SOL     OW 7801   4.724   3.770   0.766
 2582SOL    HW1 7802   4.753   3.700   0.825
 2582SOL    HW2 7803   4.630   3.754   0.755
 2583SOL     OW 7804   2.947   0.652   2.584
 2583SOL    HW1 7805   2.868   0.703   2.566
 2583SOL    HW2 7806   2.927   0.564   2.551
 2584SOL     OW 7807   2.034   2.888   0.621
 2584SOL    HW1 7808   2.000   2.872   0.709
 2584SOL    HW2 7809   2.091   2.965   0.630
 2585SOL     OW 7810   0.850   3.438   4.161
 2585SOL    HW1 7811   0.794   3.454   4.085
 2585SOL    HW2 7812   0.791   3.443   4.236
 2586SOL     OW 7813   3.769   1.537   2.356
 2586SOL    HW1 7814   3.816   1.461   2.323
 2586SOL    HW2 7815   3.748   1.588   2.277
 2587SOL     OW 7816   1.591   3.321   3.038
 2587SOL    HW1 7817   1.602   3.232   3.004
 2587SOL    HW2 7818   1.600   3.377   2.960
 2588SOL     OW 7819   4.180   1.773   1.257
 2588SOL    HW1 7820   4.206   1.832   1.186
 2588SOL    HW2 7821   4.260   1.763   1.310
 2589SOL     OW 7822   1.007   4.161   1.379
 2589SOL    HW1 7823   1.017   4.234   1.318
 2589SOL    HW2 7824   1.094   4.149   1.417
 2590SOL     OW 7825   4.499   4.440   0.961
 2590SOL    HW1 7826   4.475   4.486   1.041
 2590SOL    HW2 7827   4.530   4.355   0.991
 2591SOL     OW 7828   1.870   3.531   4.937
 2591SOL    HW1 7829   1.848   3.462   4.874
 2591SOL    HW2 7830   1.892   3.484   0.041
 2592SOL     OW 7831   2.481   2.547   3.227
 2592SOL    HW1 7832   2.575   2.549   3.246
 2592SOL    HW2 7833   2.470   2.607   3.153
 2593SOL     OW 7834   3.948   0.098   3.160
 2593SOL    HW1 7835   3.900   0.181   3.167
 2593SOL    HW2 7836   3.956   0.067   3.250
 2594SOL     OW 7837   3.502   1.292   4.866
 2594SOL    HW1 7838   3.479   1.265   4.777
 2594SOL    HW2 7839   3.452   1.233   4.923
 2595SOL     OW 7840   2.209   0.953   0.616
 2595SOL    HW1 7841   2.175   0.865   0.598
 2595SOL    HW2 7842   2.132   1.009   0.615
 2596SOL     OW 7843   2.547   4.067   0.266
 2596SOL    HW1 7844   2.596   3.986   0.278
 2596SOL    HW2 7845   2.457   4.038   0.251
 2597SOL     OW 7846   4.300   0.011   3.811
 2597SOL    HW1 7847   4.298   0.048   3.723
 2597SOL    HW2 7848   4.393   4.972   3.829
 2598SOL     OW 7849   1.501   4.955   3.966
 2598SOL    HW1 7850   1.586   0.009   3.932
 2598SOL    HW2 7851   1.495   4.863   3.939
 2599SOL     OW 7852   4.218   0.452   1.709
 2599SOL    HW1 7853   4.246   0.501   1.786
 2599SOL    HW2 7854   4.170   0.377   1.745
 2600SOL     OW 7855   2.983   2.296   2.262
 2600SOL    HW1 7856   3.007   2.220   2.210
 2600SOL    HW2 7857   2.896   2.320   2.230
 2601SOL     OW 7858   0.191   2.715   3.349
 2601SOL    HW1 7859   0.184   2.707   3.444
 2601SOL    HW2 7860   0.261   2.654   3.325
 2602SOL     OW 7861   0.213   0.319   1.260
 2602SOL    HW1 7862   0.174   0.315   1.347
 2602SOL    HW2 7863   0.172   0.246   1.212
 2603SOL     OW 7864   3.474   1.308   2.268
 2603SOL    HW1 7865   3.456   1.334   2.359
 2603SOL    HW2 7866   3.543   1.242   2.276
 2604SOL     OW 7867   4.276   1.333   2.835
 2604SOL    HW1 7868   4.208   1.386   2.876
 2604SOL    HW2 7869   4.338   1.397   2.799
 2605SOL     OW 7870   2.859   2.244   4.255
 2605SOL    HW1 7871   2.863   2.339   4.268
 2605SOL    HW2 7872   2.948   2.220   4.228
 2606SOL     OW 7873   1.846   0.797   4.738
 2606SOL    HW1 7874   1.891   0.824   4.818
 2606SOL    HW2 7875   1.754   0.819   4.753
 2607SOL     OW 7876   1.923   4.064   2.545
 2607SOL    HW1 7877   1.943   4.111   2.626
 2607SOL    HW2 7878   1.924   3.972   2.571
 2608SOL     OW 7879   3.477   3.631   1.124
 2608SOL    HW1 7880   3.446   3.639   1.214
 2608SOL    HW2 7881   3.410   3.579   1.080
 2609SOL     OW 7882   3.118   0.042   0.211
 2609SOL    HW1 7883   3.032   0.005   0.194
 2609SOL    HW2 7884   3.114   0.073   0.302
 2610SOL     OW 7885   3.847   0.524   3.724
 2610SOL    HW1 7886   3.802   0.513   3.640
 2610SOL    HW2 7887   3.797   0.470   3.786
 2611SOL     OW 7888   3.084   4.420   3.574
 2611SOL    HW1 7889   3.156   4.369   3.611
 2611SOL    HW2 7890   3.046   4.363   3.508
 2612SOL     OW 7891   0.993   3.070   4.591
 2612SOL    HW1 7892   0.906   3.044   4.563
 2612SOL    HW2 7893   1.030   2.991   4.631
 2613SOL     OW 7894   2.146   2.110   3.209
 2613SOL    HW1 7895   2.096   2.173   3.156
 2613SOL    HW2 7896   2.119   2.024   3.176
 2614SOL     OW 7897   3.261   3.842   0.420
 2614SOL    HW1 7898   3.323   3.843   0.493
 2614SOL    HW2 7899   3.214   3.925   0.428
 2615SOL     OW 7900   3.827   4.493   2.550
 2615SOL    HW1 7901   3.825   4.548   2.471
 2615SOL    HW2 7902   3.893   4.426   2.530
 2616SOL     OW 7903   0.476   1.049   4.753
 2616SOL    HW1 7904   0.411   0.981   4.769
 2616SOL    HW2 7905   0.451   1.121   4.812
 2617SOL     OW 7906   1.302   3.081   1.105
 2617SOL    HW1 7907   1.331   3.158   1.056
 2617SOL    HW2 7908   1.265   3.117   1.186
 2618SOL     OW 7909   4.264   2.552   4.502
 2618SOL    HW1 7910   4.244   2.643   4.521
 2618SOL    HW2 7911   4.358   2.552   4.483
 2619SOL     OW 7912   3.042   2.094   2.857
 2619SOL    HW1 7913   2.997   2.044   2.789
 2619SOL    HW2 7914   2.993   2.176   2.863
 2620SOL     OW 7915   1.558   1.491   2.002
 2620SOL    HW1 7916   1.532   1.540   2.080
 2620SOL    HW2 7917   1.509   1.532   1.930
 2621SOL     OW 7918   1.009   1.720   3.706
 2621SOL    HW1 7919   1.037   1.698   3.795
 2621SOL    HW2 7920   0.960   1.801   3.715
 2622SOL     OW 7921   2.066   3.208   2.118
 2622SOL    HW1 7922   2.069   3.128   2.171
 2622SOL    HW2 7923   1.993   3.258   2.154
 2623SOL     OW 7924   1.970   2.667   3.114
 2623SOL    HW1 7925   2.003   2.609   3.046
 2623SOL    HW2 7926   1.946   2.747   3.068
 2624SOL     OW 7927   3.832   1.796   3.708
 2624SOL    HW1 7928   3.837   1.708   3.744
 2624SOL    HW2 7929   3.841   1.783   3.613
 2625SOL     OW 7930   0.376   3.201   4.859
 2625SOL    HW1 7931   0.347   3.216   4.949
 2625SOL    HW2 7932   0.296   3.209   4.806
 2626SOL     OW 7933   1.579   2.355   2.539
 2626SOL    HW1 7934   1.561   2.336   2.631
 2626SOL    HW2 7935   1.513   2.305   2.491
 2627SOL     OW 7936   4.562   3.796   3.194
 2627SOL    HW1 7937   4.496   3.775   3.128
 2627SOL    HW2 7938   4.523   3.769   3.277
 2628SOL     OW 7939   0.640   2.985   0.469
 2628SOL    HW1 7940   0.712   3.041   0.440
 2628SOL    HW2 7941   0.629   3.006   0.562
 2629SOL     OW 7942   4.884   1.191   0.174
 2629SOL    HW1 7943   0.001   1.196   0.192
 2629SOL    HW2 7944   4.853   1.117   0.225
 2630SOL     OW 7945   2.227   4.019   4.631
 2630SOL    HW1 7946   2.290   4.071   4.681
 2630SOL    HW2 7947   2.258   3.929   4.638
 2631SOL     OW 7948   2.994   2.849   3.988
 2631SOL    HW1 7949   3.041   2.766   3.999
 2631SOL    HW2 7950   2.909   2.824   3.952
 2632SOL     OW 7951   4.753   2.012   4.592
 2632SOL    HW1 7952   4.724   2.080   4.654
 2632SOL    HW2 7953   4.844   2.034   4.574
 2633SOL     OW 7954   4.420   1.405   3.664
 2633SOL    HW1 7955   4.451   1.318   3.641
 2633SOL    HW2 7956   4.361   1.392   3.738
 2634SOL     OW 7957   1.778   3.760   0.088
 2634SOL    HW1 7958   1.812   3.702   0.019
 2634SOL    HW2 7959   1.857   3.799   0.127
 2635SOL     OW 7960   4.974   3.573   1.740
 2635SOL    HW1 7961   4.957   3.479   1.747
 2635SOL    HW2 7962   0.053   3.581   1.662
 2636SOL     OW 7963   2.922   3.066   1.711
 2636SOL    HW1 7964   2.895   3.123   1.639
 2636SOL    HW2 7965   2.921   3.122   1.788
 2637SOL     OW 7966   1.034   1.115   3.693
 2637SOL    HW1 7967   0.954   1.142   3.648
 2637SOL    HW2 7968   1.054   1.187   3.753
 2638SOL     OW 7969   4.385   2.020   3.799
 2638SOL    HW1 7970   4.409   1.942   3.849
 2638SOL    HW2 7971   4.289   2.020   3.798
 2639SOL     OW 7972   1.023   2.454   2.979
 2639SOL    HW1 7973   1.093   2.519   2.989
 2639SOL    HW2 7974   0.943   2.504   2.994
 2640SOL     OW 7975   1.428   2.585   4.808
 2640SOL    HW1 7976   1.385   2.607   4.890
 2640SOL    HW2 7977   1.447   2.491   4.815
 2641SOL     OW 7978   0.443   0.658   4.215
 2641SOL    HW1 7979   0.402   0.670   4.130
 2641SOL    HW2 7980   0.391   0.712   4.275
 2642SOL     OW 7981   2.767   2.025   3.592
 2642SOL    HW1 7982   2.847   2.025   3.539
 2642SOL    HW2 7983   2.697   2.004   3.530
 2643SOL     OW 7984   4.639   3.168   1.540
 2643SOL    HW1 7985   4.709   3.172   1.605
 2643SOL    HW2 7986   4.565   3.213   1.582
 2644SOL     OW 7987   0.011   3.940   4.924
 2644SOL    HW1 7988   0.050   3.868   4.974
 2644SOL    HW2 7989   0.005   4.012   0.009
 2645SOL     OW 7990   2.928   3.908   2.911
 2645SOL    HW1 7991   2.997   3.974   2.913
 2645SOL    HW2 7992   2.867   3.938   2.844
 2646SOL     OW 7993   1.199   1.419   4.331
 2646SOL    HW1 7994   1.203   1.344   4.390
 2646SOL    HW2 7995   1.169   1.491   4.387
 2647SOL     OW 7996   2.630   1.305   4.221
 2647SOL    HW1 7997   2.640   1.385   4.272
 2647SOL    HW2 7998   2.671   1.237   4.275
 2648SOL     OW 7999   4.409   4.021   0.563
 2648SOL    HW1 8000   4.486   3.970   0.537
 2648SOL    HW2 8001   4.341   3.955   0.578
 2649SOL     OW 8002   1.620   4.699   4.606
 2649SOL    HW1 8003   1.647   4.784   4.569
 2649SOL    HW2 8004   1.681   4.636   4.567
 2650SOL     OW 8005   3.920   3.564   0.188
 2650SOL    HW1 8006   3.942   3.513   0.110
 2650SOL    HW2 8007   3.838   3.525   0.220
 2651SOL     OW 8008   4.627   0.078   4.130
 2651SOL    HW1 8009   4.661   0.103   4.216
 2651SOL    HW2 8010   4.695   0.106   4.068
 2652SOL     OW 8011   0.443   1.932   0.624
 2652SOL    HW1 8012   0.492   1.853   0.648
 2652SOL    HW2 8013   0.508   1.988   0.581
 2653SOL     OW 8014   4.418   3.694   0.272
 2653SOL    HW1 8015   4.475   3.657   0.339
 2653SOL    HW2 8016   4.329   3.670   0.300
 2654SOL     OW 8017   2.267   1.078   1.572
 2654SOL    HW1 8018   2.292   1.069   1.480
 2654SOL    HW2 8019   2.222   0.997   1.593
 2655SOL     OW 8020   0.559   1.427   0.037
 2655SOL    HW1 8021   0.505   1.351   0.015
 2655SOL    HW2 8022   0.509   1.502   0.003
 2656SOL     OW 8023   2.449   3.900   3.592
 2656SOL    HW1 8024   2.416   3.984   3.561
 2656SOL    HW2 8025   2.379   3.838   3.570
 2657SOL     OW 8026   1.097   1.190   1.232
 2657SOL    HW1 8027   1.097   1.119   1.297
 2657SOL    HW2 8028   1.189   1.217   1.227
 2658SOL     OW 8029   3.279   2.161   2.323
 2658SOL    HW1 8030   3.204   2.148   2.382
 2658SOL    HW2 8031   3.287   2.078   2.276
 2659SOL     OW 8032   0.485   4.130   2.012
 2659SOL    HW1 8033   0.539   4.087   2.079
 2659SOL    HW2 8034   0.543   4.195   1.973
 2660SOL     OW 8035   0.542   2.862   1.723
 2660SOL    HW1 8036   0.500   2.887   1.805
 2660SOL    HW2 8037   0.486   2.791   1.689
 2661SOL     OW 8038   4.426   0.420   3.749
 2661SOL    HW1 8039   4.386   0.383   3.670
 2661SOL    HW2 8040   4.408   0.355   3.817
 2662SOL     OW 8041   4.270   0.503   1.976
 2662SOL    HW1 8042   4.255   0.591   2.011
 2662SOL    HW2 8043   4.206   0.448   2.021
 2663SOL     OW 8044   2.896   4.832   1.190
 2663SOL    HW1 8045   2.855   4.769   1.250
 2663SOL    HW2 8046   2.922   4.780   1.115
 2664SOL     OW 8047   4.682   4.822   4.642
 2664SOL    HW1 8048   4.622   4.759   4.684
 2664SOL    HW2 8049   4.753   4.768   4.608
 2665SOL     OW 8050   2.141   0.477   1.884
 2665SOL    HW1 8051   2.165   0.409   1.820
 2665SOL    HW2 8052   2.180   0.557   1.849
 2666SOL     OW 8053   1.139   4.755   3.878
 2666SOL    HW1 8054   1.124   4.792   3.965
 2666SOL    HW2 8055   1.177   4.669   3.896
 2667SOL     OW 8056   2.400   0.610   4.668
 2667SOL    HW1 8057   2.465   0.561   4.717
 2667SOL    HW2 8058   2.444   0.635   4.587
 2668SOL     OW 8059   3.343   4.637   0.581
 2668SOL    HW1 8060   3.395   4.708   0.618
 2668SOL    HW2 8061   3.292   4.603   0.654
 2669SOL     OW 8062   0.455   0.407   2.698
 2669SOL    HW1 8063   0.521   0.423   2.631
 2669SOL    HW2 8064   0.505   0.384   2.777
 2670SOL     OW 8065   0.543   0.843   1.254
 2670SOL    HW1 8066   0.455   0.880   1.257
 2670SOL    HW2 8067   0.600   0.917   1.236
 2671SOL     OW 8068   2.786   1.344   1.290
 2671SOL    HW1 8069   2.736   1.407   1.239
 2671SOL    HW2 8070   2.777   1.373   1.381
 2672SOL     OW 8071   4.432   2.725   0.530
 2672SOL    HW1 8072   4.398   2.790   0.591
 2672SOL    HW2 8073   4.417   2.641   0.573
 2673SOL     OW 8074   2.002   2.207   3.631
 2673SOL    HW1 8075   2.081   2.250   3.600
 2673SOL    HW2 8076   2.022   2.182   3.721
 2674SOL     OW 8077   3.382   2.583   1.964
 2674SOL    HW1 8078   3.415   2.494   1.974
 2674SOL    HW2 8079   3.371   2.615   2.054
 2675SOL     OW 8080   2.706   2.773   4.142
 2675SOL    HW1 8081   2.645   2.712   4.101
 2675SOL    HW2 8082   2.687   2.767   4.235
 2676SOL     OW 8083   2.900   2.048   0.222
 2676SOL    HW1 8084   2.877   1.963   0.259
 2676SOL    HW2 8085   2.848   2.111   0.272
 2677SOL     OW 8086   3.935   3.292   2.402
 2677SOL    HW1 8087   3.935   3.212   2.350
 2677SOL    HW2 8088   3.950   3.362   2.338
 2678SOL     OW 8089   0.982   4.302   4.580
 2678SOL    HW1 8090   1.049   4.318   4.645
 2678SOL    HW2 8091   0.925   4.379   4.584
 2679SOL     OW 8092   3.666   3.567   4.564
 2679SOL    HW1 8093   3.726   3.552   4.636
 2679SOL    HW2 8094   3.700   3.514   4.492
 2680SOL     OW 8095   3.897   4.721   3.784
 2680SOL    HW1 8096   3.859   4.641   3.823
 2680SOL    HW2 8097   3.822   4.764   3.743
 2681SOL     OW 8098   0.423   4.601   3.778
 2681SOL    HW1 8099   0.448   4.554   3.858
 2681SOL    HW2 8100   0.496   4.585   3.717
 2682SOL     OW 8101   1.045   0.392   0.826
 2682SOL    HW1 8102   1.080   0.379   0.914
 2682SOL    HW2 8103   1.102   0.341   0.769
 2683SOL     OW 8104   3.543   4.274   1.804
 2683SOL    HW1 8105   3.602   4.349   1.798
 2683SOL    HW2 8106   3.471   4.296   1.744
 2684SOL     OW 8107   3.514   1.457   1.709
 2684SOL    HW1 8108   3.517   1.530   1.770
 2684SOL    HW2 8109   3.444   1.400   1.743
 2685SOL     OW 8110   1.026   4.641   0.021
 2685SOL    HW1 8111   1.087   4.614   4.928
 2685SOL    HW2 8112   0.985   4.720   4.963
 2686SOL     OW 8113   1.803   4.245   4.361
 2686SOL    HW1 8114   1.882   4.193   4.346
 2686SOL    HW2 8115   1.779   4.227   4.452
 2687SOL     OW 8116   0.764   1.210   0.671
 2687SOL    HW1 8117   0.779   1.207   0.765
 2687SOL    HW2 8118   0.834   1.157   0.633
 2688SOL     OW 8119   4.196   4.487   4.851
 2688SOL    HW1 8120   4.175   4.431   4.776
 2688SOL    HW2 8121   4.113   4.528   4.875
 2689SOL     OW 8122   3.114   0.042   3.206
 2689SOL    HW1 8123   3.098   4.961   3.281
 2689SOL    HW2 8124   3.184   4.975   3.157
 2690SOL     OW 8125   1.798   4.565   2.915
 2690SOL    HW1 8126   1.840   4.602   2.838
 2690SOL    HW2 8127   1.829   4.474   2.919
 2691SOL     OW 8128   0.417   0.357   4.341
 2691SOL    HW1 8129   0.419   0.373   4.247
 2691SOL    HW2 8130   0.390   0.441   4.379
 2692SOL     OW 8131   3.452   0.229   1.833
 2692SOL    HW1 8132   3.389   0.183   1.889
 2692SOL    HW2 8133   3.420   0.319   1.828
 2693SOL     OW 8134   4.375   1.814   3.966
 2693SOL    HW1 8135   4.365   1.863   4.047
 2693SOL    HW2 8136   4.428   1.738   3.990
 2694SOL     OW 8137   3.369   1.521   4.229
 2694SOL    HW1 8138   3.292   1.466   4.244
 2694SOL    HW2 8139   3.341   1.610   4.253
 2695SOL     OW 8140   2.406   1.551   0.094
 2695SOL    HW1 8141   2.329   1.606   0.080
 2695SOL    HW2 8142   2.439   1.532   0.006
 2696SOL     OW 8143   4.484   0.867   1.278
 2696SOL    HW1 8144   4.503   0.776   1.303
 2696SOL    HW2 8145   4.461   0.862   1.186
 2697SOL     OW 8146   4.537   2.411   3.235
 2697SOL    HW1 8147   4.531   2.358   3.314
 2697SOL    HW2 8148   4.554   2.500   3.267
 2698SOL     OW 8149   0.265   3.028   1.097
 2698SOL    HW1 8150   0.250   3.030   1.002
 2698SOL    HW2 8151   0.353   2.993   1.107
 2699SOL     OW 8152   0.187   1.281   0.214
 2699SOL    HW1 8153   0.205   1.271   0.308
 2699SOL    HW2 8154   0.251   1.223   0.172
 2700SOL     OW 8155   1.943   4.633   2.702
 2700SOL    HW1 8156   2.026   4.585   2.706
 2700SOL    HW2 8157   1.968   4.725   2.700
 2701SOL     OW 8158   2.243   3.278   2.488
 2701SOL    HW1 8159   2.338   3.279   2.493
 2701SOL    HW2 8160   2.221   3.194   2.446
 2702SOL     OW 8161   3.403   0.277   1.260
 2702SOL    HW1 8162   3.444   0.360   1.234
 2702SOL    HW2 8163   3.413   0.221   1.184
 2703SOL     OW 8164   1.611   4.259   1.661
 2703SOL    HW1 8165   1.612   4.323   1.590
 2703SOL    HW2 8166   1.626   4.175   1.619
 2704SOL     OW 8167   0.861   2.980   1.742
 2704SOL    HW1 8168   0.823   3.066   1.727
 2704SOL    HW2 8169   0.796   2.933   1.793
 2705SOL     OW 8170   2.904   1.587   4.094
 2705SOL    HW1 8171   2.974   1.536   4.054
 2705SOL    HW2 8172   2.895   1.663   4.036
 2706SOL     OW 8173   1.560   3.900   0.855
 2706SOL    HW1 8174   1.610   3.834   0.807
 2706SOL    HW2 8175   1.601   3.903   0.941
 2707SOL     OW 8176   2.598   1.653   0.911
 2707SOL    HW1 8177   2.587   1.564   0.877
 2707SOL    HW2 8178   2.522   1.701   0.879
 2708SOL     OW 8179   4.444   0.121   1.819
 2708SOL    HW1 8180   4.454   0.120   1.724
 2708SOL    HW2 8181   4.502   0.052   1.851
 2709SOL     OW 8182   1.944   1.444   0.933
 2709SOL    HW1 8183   1.996   1.394   0.869
 2709SOL    HW2 8184   1.989   1.528   0.939
 2710SOL     OW 8185   4.156   4.382   1.211
 2710SOL    HW1 8186   4.151   4.287   1.223
 2710SOL    HW2 8187   4.237   4.407   1.255
 2711SOL     OW 8188   2.793   4.198   1.097
 2711SOL    HW1 8189   2.744   4.277   1.117
 2711SOL    HW2 8190   2.740   4.126   1.131
 2712SOL     OW 8191   2.712   1.493   2.330
 2712SOL    HW1 8192   2.768   1.493   2.408
 2712SOL    HW2 8193   2.625   1.472   2.365
 2713SOL     OW 8194   3.899   0.358   2.954
 2713SOL    HW1 8195   3.992   0.367   2.973
 2713SOL    HW2 8196   3.892   0.277   2.903
 2714SOL     OW 8197   4.126   0.732   3.325
 2714SOL    HW1 8198   4.052   0.748   3.383
 2714SOL    HW2 8199   4.133   0.636   3.320
 2715SOL     OW 8200   1.406   2.024   1.041
 2715SOL    HW1 8201   1.486   1.976   1.020
 2715SOL    HW2 8202   1.383   2.069   0.960
 2716SOL     OW 8203   3.789   4.475   3.541
 2716SOL    HW1 8204   3.782   4.380   3.531
 2716SOL    HW2 8205   3.882   4.494   3.534
 2717SOL     OW 8206   3.056   1.017   2.577
 2717SOL    HW1 8207   3.072   1.093   2.520
 2717SOL    HW2 8208   2.990   0.966   2.531
 2718SOL     OW 8209   3.294   4.737   1.075
 2718SOL    HW1 8210   3.380   4.695   1.084
 2718SOL    HW2 8211   3.253   4.724   1.161
 2719SOL     OW 8212   2.354   1.371   0.392
 2719SOL    HW1 8213   2.393   1.334   0.471
 2719SOL    HW2 8214   2.364   1.465   0.402
 2720SOL     OW 8215   3.640   0.654   1.010
 2720SOL    HW1 8216   3.611   0.743   1.028
 2720SOL    HW2 8217   3.736   0.661   1.005
 2721SOL     OW 8218   2.089   1.594   3.796
 2721SOL    HW1 8219   2.164   1.536   3.806
 2721SOL    HW2 8220   2.123   1.667   3.743
 2722SOL     OW 8221   3.824   0.865   3.100
 2722SOL    HW1 8222   3.878   0.898   3.171
 2722SOL    HW2 8223   3.882   0.866   3.023
 2723SOL     OW 8224   1.624   2.299   2.981
 2723SOL    HW1 8225   1.588   2.315   3.069
 2723SOL    HW2 8226   1.685   2.226   2.994
 2724SOL     OW 8227   0.952   2.384   2.582
 2724SOL    HW1 8228   1.041   2.394   2.614
 2724SOL    HW2 8229   0.897   2.417   2.654
 2725SOL     OW 8230   3.148   3.313   1.660
 2725SOL    HW1 8231   3.105   3.371   1.597
 2725SOL    HW2 8232   3.174   3.237   1.608
 2726SOL     OW 8233   4.571   4.201   4.518
 2726SOL    HW1 8234   4.561   4.116   4.475
 2726SOL    HW2 8235   4.657   4.197   4.559
 2727SOL     OW 8236   3.471   4.047   2.896
 2727SOL    HW1 8237   3.514   3.967   2.865
 2727SOL    HW2 8238   3.448   4.094   2.816
 2728SOL     OW 8239   2.944   2.872   1.352
 2728SOL    HW1 8240   2.919   2.905   1.266
 2728SOL    HW2 8241   2.914   2.781   1.353
 2729SOL     OW 8242   3.742   4.052   2.630
 2729SOL    HW1 8243   3.794   4.132   2.621
 2729SOL    HW2 8244   3.807   3.982   2.634
 2730SOL     OW 8245   2.801   4.214   2.925
 2730SOL    HW1 8246   2.743   4.227   3.000
 2730SOL    HW2 8247   2.871   4.278   2.936
 2731SOL     OW 8248   2.808   3.030   0.099
 2731SOL    HW1 8249   2.778   2.976   0.026
 2731SOL    HW2 8250   2.774   3.118   0.080
 2732SOL     OW 8251   1.192   0.072   2.612
 2732SOL    HW1 8252   1.203   0.106   2.700
 2732SOL    HW2 8253   1.097   0.058   2.603
 2733SOL     OW 8254   0.199   1.313   3.120
 2733SOL    HW1 8255   0.237   1.355   3.042
 2733SOL    HW2 8256   0.136   1.378   3.153
 2734SOL     OW 8257   2.628   1.452   2.695
 2734SOL    HW1 8258   2.564   1.523   2.700
 2734SOL    HW2 8259   2.708   1.494   2.665
 2735SOL     OW 8260   2.264   0.329   1.684
 2735SOL    HW1 8261   2.354   0.340   1.651
 2735SOL    HW2 8262   2.209   0.364   1.614
 2736SOL     OW 8263   3.202   1.833   1.145
 2736SOL    HW1 8264   3.189   1.792   1.060
 2736SOL    HW2 8265   3.159   1.918   1.137
 2737SOL     OW 8266   4.436   0.226   4.765
 2737SOL    HW1 8267   4.355   0.179   4.744
 2737SOL    HW2 8268   4.437   0.300   4.705
 2738SOL     OW 8269   4.532   4.968   4.457
 2738SOL    HW1 8270   4.559   4.913   4.384
 2738SOL    HW2 8271   4.611   0.004   4.509
 2739SOL     OW 8272   3.730   3.184   1.300
 2739SOL    HW1 8273   3.696   3.219   1.383
 2739SOL    HW2 8274   3.766   3.260   1.255
 2740SOL     OW 8275   0.926   1.958   1.279
 2740SOL    HW1 8276   0.971   1.898   1.338
 2740SOL    HW2 8277   0.910   1.907   1.200
 2741SOL     OW 8278   2.105   3.182   4.607
 2741SOL    HW1 8279   2.032   3.139   4.563
 2741SOL    HW2 8280   2.125   3.126   4.681
 2742SOL     OW 8281   3.476   0.115   1.065
 2742SOL    HW1 8282   3.560   0.158   1.050
 2742SOL    HW2 8283   3.496   0.040   1.121
 2743SOL     OW 8284   2.349   2.589   3.499
 2743SOL    HW1 8285   2.407   2.567   3.426
 2743SOL    HW2 8286   2.265   2.607   3.458
 2744SOL     OW 8287   2.828   1.681   1.260
 2744SOL    HW1 8288   2.735   1.658   1.253
 2744SOL    HW2 8289   2.867   1.643   1.181
 2745SOL     OW 8290   4.407   1.092   0.597
 2745SOL    HW1 8291   4.394   1.121   0.506
 2745SOL    HW2 8292   4.487   1.137   0.624
 2746SOL     OW 8293   2.631   4.066   4.508
 2746SOL    HW1 8294   2.636   4.105   4.595
 2746SOL    HW2 8295   2.577   4.127   4.457
 2747SOL     OW 8296   2.092   4.239   4.099
 2747SOL    HW1 8297   2.152   4.174   4.062
 2747SOL    HW2 8298   2.091   4.220   4.193
 2748SOL     OW 8299   0.521   0.661   0.755
 2748SOL    HW1 8300   0.500   0.647   0.663
 2748SOL    HW2 8301   0.610   0.694   0.754
 2749SOL     OW 8302   0.094   0.135   1.104
 2749SOL    HW1 8303   0.029   0.100   1.165
 2749SOL    HW2 8304   0.154   0.063   1.089
 2750SOL     OW 8305   3.862   1.935   0.289
 2750SOL    HW1 8306   3.806   1.858   0.298
 2750SOL    HW2 8307   3.842   1.990   0.365
 2751SOL     OW 8308   4.114   1.440   3.064
 2751SOL    HW1 8309   4.025   1.442   3.027
 2751SOL    HW2 8310   4.107   1.489   3.146
 2752SOL     OW 8311   1.176   4.828   1.220
 2752SOL    HW1 8312   1.216   4.741   1.226
 2752SOL    HW2 8313   1.150   4.849   1.310
 2753SOL     OW 8314   3.293   0.928   1.574
 2753SOL    HW1 8315   3.301   0.833   1.567
 2753SOL    HW2 8316   3.361   0.953   1.637
 2754SOL     OW 8317   3.235   0.115   2.548
 2754SOL    HW1 8318   3.312   0.063   2.571
 2754SOL    HW2 8319   3.170   0.091   2.615
 2755SOL     OW 8320   3.828   0.865   1.620
 2755SOL    HW1 8321   3.843   0.789   1.676
 2755SOL    HW2 8322   3.758   0.837   1.561
 2756SOL     OW 8323   2.463   4.087   0.912
 2756SOL    HW1 8324   2.457   4.072   1.006
 2756SOL    HW2 8325   2.384   4.047   0.876
 2757SOL     OW 8326   3.228   1.735   4.365
 2757SOL    HW1 8327   3.279   1.728   4.445
 2757SOL    HW2 8328   3.148   1.685   4.383
 2758SOL     OW 8329   2.070   0.039   0.544
 2758SOL    HW1 8330   2.135   0.032   0.474
 2758SOL    HW2 8331   2.119   0.071   0.620
 2759SOL     OW 8332   0.946   1.368   2.744
 2759SOL    HW1 8333   0.970   1.461   2.747
 2759SOL    HW2 8334   0.995   1.334   2.669
 2760SOL     OW 8335   0.865   2.931   4.109
 2760SOL    HW1 8336   0.799   2.862   4.105
 2760SOL    HW2 8337   0.824   2.999   4.163
 2761SOL     OW 8338   1.474   4.709   3.878
 2761SOL    HW1 8339   1.553   4.656   3.885
 2761SOL    HW2 8340   1.432   4.679   3.798
 2762SOL     OW 8341   4.975   0.529   1.983
 2762SOL    HW1 8342   0.001   0.609   1.931
 2762SOL    HW2 8343   4.942   0.462   1.923
 2763SOL     OW 8344   3.198   4.783   0.407
 2763SOL    HW1 8345   3.248   4.720   0.459
 2763SOL    HW2 8346   3.173   4.851   0.470
 2764SOL     OW 8347   3.328   2.023   3.525
 2764SOL    HW1 8348   3.364   2.101   3.482
 2764SOL    HW2 8349   3.374   1.950   3.485
 2765SOL     OW 8350   0.982   1.055   0.576
 2765SOL    HW1 8351   0.970   1.085   0.486
 2765SOL    HW2 8352   1.018   0.967   0.567
 2766SOL     OW 8353   1.624   2.300   1.009
 2766SOL    HW1 8354   1.560   2.316   0.940
 2766SOL    HW2 8355   1.686   2.373   1.000
 2767SOL     OW 8356   3.474   2.948   3.925
 2767SOL    HW1 8357   3.523   2.933   4.006
 2767SOL    HW2 8358   3.383   2.932   3.950
 2768SOL     OW 8359   0.862   3.611   0.370
 2768SOL    HW1 8360   0.931   3.549   0.346
 2768SOL    HW2 8361   0.784   3.577   0.327
 2769SOL     OW 8362   1.045   2.552   1.833
 2769SOL    HW1 8363   1.101   2.584   1.903
 2769SOL    HW2 8364   1.100   2.554   1.755
 2770SOL     OW 8365   1.775   0.515   4.215
 2770SOL    HW1 8366   1.850   0.571   4.235
 2770SOL    HW2 8367   1.709   0.540   4.279
 2771SOL     OW 8368   2.253   1.959   0.604
 2771SOL    HW1 8369   2.230   1.913   0.523
 2771SOL    HW2 8370   2.276   2.048   0.575
 2772SOL     OW 8371   3.957   3.071   0.949
 2772SOL    HW1 8372   3.920   3.056   0.862
 2772SOL    HW2 8373   3.893   3.033   1.009
 2773SOL     OW 8374   1.274   1.729   0.082
 2773SOL    HW1 8375   1.185   1.714   0.049
 2773SOL    HW2 8376   1.266   1.717   0.177
 2774SOL     OW 8377   0.776   0.886   3.989
 2774SOL    HW1 8378   0.768   0.798   4.025
 2774SOL    HW2 8379   0.801   0.872   3.898
 2775SOL     OW 8380   1.076   1.340   0.843
 2775SOL    HW1 8381   1.108   1.394   0.770
 2775SOL    HW2 8382   1.123   1.374   0.919
 2776SOL     OW 8383   2.228   2.739   1.140
 2776SOL    HW1 8384   2.140   2.763   1.113
 2776SOL    HW2 8385   2.286   2.781   1.076
 2777SOL     OW 8386   3.755   2.186   2.939
 2777SOL    HW1 8387   3.850   2.184   2.926
 2777SOL    HW2 8388   3.723   2.112   2.887
 2778SOL     OW 8389   2.073   2.967   2.320
 2778SOL    HW1 8390   1.978   2.961   2.310
 2778SOL    HW2 8391   2.088   2.950   2.413
 2779SOL     OW 8392   0.588   1.293   3.140
 2779SOL    HW1 8393   0.532   1.365   3.171
 2779SOL    HW2 8394   0.647   1.334   3.077
 2780SOL     OW 8395   2.830   3.821   2.152
 2780SOL    HW1 8396   2.791   3.739   2.122
 2780SOL    HW2 8397   2.923   3.801   2.163
 2781SOL     OW 8398   2.528   4.417   4.729
 2781SOL    HW1 8399   2.553   4.393   4.640
 2781SOL    HW2 8400   2.432   4.410   4.730
 2782SOL     OW 8401   3.034   2.223   3.876
 2782SOL    HW1 8402   3.111   2.185   3.833
 2782SOL    HW2 8403   3.036   2.315   3.850
 2783SOL     OW 8404   4.430   4.599   2.959
 2783SOL    HW1 8405   4.513   4.589   2.912
 2783SOL    HW2 8406   4.409   4.692   2.951
 2784SOL     OW 8407   3.331   0.666   3.625
 2784SOL    HW1 8408   3.359   0.590   3.574
 2784SOL    HW2 8409   3.240   0.646   3.649
 2785SOL     OW 8410   2.502   3.897   1.895
 2785SOL    HW1 8411   2.435   3.963   1.874
 2785SOL    HW2 8412   2.452   3.822   1.926
 2786SOL     OW 8413   1.635   0.614   3.460
 2786SOL    HW1 8414   1.587   0.627   3.378
 2786SOL    HW2 8415   1.609   0.528   3.490
 2787SOL     OW 8416   1.509   4.471   1.127
 2787SOL    HW1 8417   1.470   4.402   1.073
 2787SOL    HW2 8418   1.457   4.549   1.108
 2788SOL     OW 8419   1.469   4.017   3.045
 2788SOL    HW1 8420   1.385   3.979   3.069
 2788SOL    HW2 8421   1.464   4.031   2.950
 2789SOL     OW 8422   1.407   3.730   2.614
 2789SOL    HW1 8423   1.391   3.684   2.697
 2789SOL    HW2 8424   1.353   3.809   2.620
 2790SOL     OW 8425   0.009   0.176   3.554
 2790SOL    HW1 8426   0.012   0.153   3.461
 2790SOL    HW2 8427   0.012   0.093   3.600
 2791SOL     OW 8428   0.152   4.799   1.873
 2791SOL    HW1 8429   0.099   4.830   1.947
 2791SOL    HW2 8430   0.122   4.710   1.858
 2792SOL     OW 8431   3.167   2.627   4.021
 2792SOL    HW1 8432   3.154   2.622   4.116
 2792SOL    HW2 8433   3.241   2.569   4.005
 2793SOL     OW 8434   3.327   4.045   1.513
 2793SOL    HW1 8435   3.233   4.029   1.507
 2793SOL    HW2 8436   3.335   4.139   1.527
 2794SOL     OW 8437   1.947   1.248   3.469
 2794SOL    HW1 8438   1.996   1.178   3.426
 2794SOL    HW2 8439   2.013   1.317   3.485
 2795SOL     OW 8440   0.209   3.543   0.471
 2795SOL    HW1 8441   0.136   3.541   0.533
 2795SOL    HW2 8442   0.171   3.575   0.390
 2796SOL     OW 8443   1.933   3.053   1.555
 2796SOL    HW1 8444   1.868   3.120   1.576
 2796SOL    HW2 8445   1.946   3.005   1.637
 2797SOL     OW 8446   2.832   4.922   4.715
 2797SOL    HW1 8447   2.772   4.887   4.781
 2797SOL    HW2 8448   2.791   4.903   4.631
 2798SOL     OW 8449   4.618   4.382   1.466
 2798SOL    HW1 8450   4.571   4.461   1.441
 2798SOL    HW2 8451   4.709   4.398   1.440
 2799SOL     OW 8452   2.740   1.846   0.334
 2799SOL    HW1 8453   2.703   1.869   0.419
 2799SOL    HW2 8454   2.797   1.771   0.352
 2800SOL     OW 8455   2.332   2.786   3.103
 2800SOL    HW1 8456   2.361   2.793   3.194
 2800SOL    HW2 8457   2.265   2.854   3.093
 2801SOL     OW 8458   2.804   2.914   1.114
 2801SOL    HW1 8459   2.728   2.957   1.155
 2801SOL    HW2 8460   2.854   2.985   1.075
 2802SOL     OW 8461   0.879   3.209   0.256
 2802SOL    HW1 8462   0.943   3.224   0.325
 2802SOL    HW2 8463   0.895   3.278   0.192
 2803SOL     OW 8464   4.170   4.240   0.956
 2803SOL    HW1 8465   4.116   4.263   1.032
 2803SOL    HW2 8466   4.226   4.316   0.942
 2804SOL     OW 8467   0.003   3.061   2.630
 2804SOL    HW1 8468   4.898   3.108   2.609
 2804SOL    HW2 8469   0.008   3.062   2.725
 2805SOL     OW 8470   3.349   0.870   2.927
 2805SOL    HW1 8471   3.348   0.962   2.903
 2805SOL    HW2 8472   3.262   0.853   2.963
 2806SOL     OW 8473   3.947   1.571   2.726
 2806SOL    HW1 8474   3.938   1.601   2.636
 2806SOL    HW2 8475   4.027   1.614   2.757
 2807SOL     OW 8476   2.516   0.433   0.424
 2807SOL    HW1 8477   2.424   0.431   0.452
 2807SOL    HW2 8478   2.521   0.505   0.363
 2808SOL     OW 8479   1.791   4.755   3.969
 2808SOL    HW1 8480   1.739   4.817   3.918
 2808SOL    HW2 8481   1.771   4.670   3.931
 2809SOL     OW 8482   1.135   0.148   0.207
 2809SOL    HW1 8483   1.201   0.104   0.261
 2809SOL    HW2 8484   1.135   0.100   0.124
 2810SOL     OW 8485   2.954   2.414   1.362
 2810SOL    HW1 8486   2.898   2.485   1.331
 2810SOL    HW2 8487   2.940   2.411   1.456
 2811SOL     OW 8488   1.390   0.632   4.880
 2811SOL    HW1 8489   1.371   0.594   4.794
 2811SOL    HW2 8490   1.381   0.559   4.941
 2812SOL     OW 8491   0.937   3.445   0.133
 2812SOL    HW1 8492   0.885   3.458   0.054
 2812SOL    HW2 8493   0.984   3.527   0.144
 2813SOL     OW 8494   2.873   0.953   0.856
 2813SOL    HW1 8495   2.810   1.016   0.891
 2813SOL    HW2 8496   2.893   0.985   0.768
 2814SOL     OW 8497   3.485   4.035   2.448
 2814SOL    HW1 8498   3.540   4.071   2.518
 2814SOL    HW2 8499   3.505   4.089   2.372
 2815SOL     OW 8500   4.790   3.183   4.829
 2815SOL    HW1 8501   4.752   3.103   4.866
 2815SOL    HW2 8502   4.742   3.254   4.871
 2816SOL     OW 8503   4.241   1.702   0.853
 2816SOL    HW1 8504   4.243   1.622   0.905
 2816SOL    HW2 8505   4.291   1.681   0.774
 2817SOL     OW 8506   2.697   4.205   4.718
 2817SOL    HW1 8507   2.730   4.166   4.800
 2817SOL    HW2 8508   2.669   4.292   4.744
 2818SOL     OW 8509   3.561   0.390   1.527
 2818SOL    HW1 8510   3.551   0.344   1.443
 2818SOL    HW2 8511   3.656   0.391   1.542
 2819SOL     OW 8512   1.236   1.018   2.145
 2819SOL    HW1 8513   1.260   1.098   2.099
 2819SOL    HW2 8514   1.318   0.987   2.184
 2820SOL     OW 8515   3.920   0.661   4.273
 2820SOL    HW1 8516   3.959   0.578   4.302
 2820SOL    HW2 8517   3.944   0.668   4.181
 2821SOL     OW 8518   2.367   4.830   1.828
 2821SOL    HW1 8519   2.336   4.792   1.910
 2821SOL    HW2 8520   2.304   4.899   1.808
 2822SOL     OW 8521   1.144   2.003   1.880
 2822SOL    HW1 8522   1.212   1.956   1.929
 2822SOL    HW2 8523   1.064   1.953   1.897
 2823SOL     OW 8524   0.557   3.636   2.657
 2823SOL    HW1 8525   0.611   3.642   2.736
 2823SOL    HW2 8526   0.470   3.613   2.691
 2824SOL     OW 8527   2.115   2.064   3.863
 2824SOL    HW1 8528   2.128   1.974   3.891
 2824SOL    HW2 8529   2.191   2.111   3.898
 2825SOL     OW 8530   2.657   1.380   4.680
 2825SOL    HW1 8531   2.714   1.358   4.754
 2825SOL    HW2 8532   2.637   1.296   4.639
 2826SOL     OW 8533   0.115   4.876   2.381
 2826SOL    HW1 8534   0.081   4.838   2.462
 2826SOL    HW2 8535   0.059   4.952   2.365
 2827SOL     OW 8536   4.220   3.016   0.955
 2827SOL    HW1 8537   4.196   2.947   1.017
 2827SOL    HW2 8538   4.135   3.049   0.924
 2828SOL     OW 8539   2.185   0.356   4.183
 2828SOL    HW1 8540   2.217   0.398   4.103
 2828SOL    HW2 8541   2.146   0.428   4.233
 2829SOL     OW 8542   4.723   0.751   1.772
 2829SOL    HW1 8543   4.639   0.739   1.816
 2829SOL    HW2 8544   4.714   0.833   1.724
 2830SOL     OW 8545   1.408   0.125   0.081
 2830SOL    HW1 8546   1.321   0.088   0.065
 2830SOL    HW2 8547   1.468   0.070   0.031
 2831SOL     OW 8548   3.384   2.871   3.052
 2831SOL    HW1 8549   3.319   2.941   3.063
 2831SOL    HW2 8550   3.431   2.894   2.972
 2832SOL     OW 8551   0.839   4.513   0.691
 2832SOL    HW1 8552   0.814   4.421   0.689
 2832SOL    HW2 8553   0.828   4.542   0.600
 2833SOL     OW 8554   1.039   4.707   2.794
 2833SOL    HW1 8555   0.971   4.720   2.860
 2833SOL    HW2 8556   0.997   4.651   2.728
 2834SOL     OW 8557   3.862   3.108   4.026
 2834SOL    HW1 8558   3.892   3.020   4.005
 2834SOL    HW2 8559   3.820   3.138   3.945
 2835SOL     OW 8560   2.114   2.675   3.366
 2835SOL    HW1 8561   2.098   2.765   3.391
 2835SOL    HW2 8562   2.057   2.660   3.291
 2836SOL     OW 8563   3.515   3.881   3.570
 2836SOL    HW1 8564   3.452   3.899   3.639
 2836SOL    HW2 8565   3.585   3.945   3.584
 2837SOL     OW 8566   3.798   2.483   1.116
 2837SOL    HW1 8567   3.748   2.503   1.195
 2837SOL    HW2 8568   3.742   2.514   1.044
 2838SOL     OW 8569   2.677   1.766   4.732
 2838SOL    HW1 8570   2.598   1.774   4.678
 2838SOL    HW2 8571   2.681   1.850   4.779
 2839SOL     OW 8572   0.390   2.334   1.253
 2839SOL    HW1 8573   0.361   2.339   1.162
 2839SOL    HW2 8574   0.334   2.268   1.293
 2840SOL     OW 8575   3.395   2.029   4.454
 2840SOL    HW1 8576   3.449   1.952   4.436
 2840SOL    HW2 8577   3.428   2.095   4.394
 2841SOL     OW 8578   3.563   3.211   4.534
 2841SOL    HW1 8579   3.636   3.161   4.570
 2841SOL    HW2 8580   3.604   3.274   4.475
 2842SOL     OW 8581   4.487   1.145   4.279
 2842SOL    HW1 8582   4.525   1.070   4.233
 2842SOL    HW2 8583   4.562   1.200   4.301
 2843SOL     OW 8584   3.585   4.669   3.185
 2843SOL    HW1 8585   3.554   4.582   3.211
 2843SOL    HW2 8586   3.655   4.689   3.248
 2844SOL     OW 8587   3.189   0.061   4.319
 2844SOL    HW1 8588   3.150   0.091   4.401
 2844SOL    HW2 8589   3.253   0.129   4.297
 2845SOL     OW 8590   2.393   0.431   3.701
 2845SOL    HW1 8591   2.367   0.483   3.625
 2845SOL    HW2 8592   2.480   0.397   3.679
 2846SOL     OW 8593   4.748   3.598   3.529
 2846SOL    HW1 8594   4.791   3.675   3.491
 2846SOL    HW2 8595   4.656   3.607   3.504
 2847SOL     OW 8596   3.930   2.335   4.067
 2847SOL    HW1 8597   4.006   2.290   4.104
 2847SOL    HW2 8598   3.939   2.323   3.973
 2848SOL     OW 8599   2.646   0.043   3.772
 2848SOL    HW1 8600   2.553   0.045   3.796
 2848SOL    HW2 8601   2.689   4.974   3.845
 2849SOL     OW 8602   1.999   4.512   0.635
 2849SOL    HW1 8603   2.030   4.448   0.699
 2849SOL    HW2 8604   1.912   4.537   0.667
 2850SOL     OW 8605   3.250   0.764   4.215
 2850SOL    HW1 8606   3.263   0.794   4.126
 2850SOL    HW2 8607   3.155   0.755   4.224
 2851SOL     OW 8608   2.455   1.835   4.609
 2851SOL    HW1 8609   2.439   1.781   4.531
 2851SOL    HW2 8610   2.373   1.884   4.621
 2852SOL     OW 8611   1.382   3.297   0.979
 2852SOL    HW1 8612   1.444   3.317   0.910
 2852SOL    HW2 8613   1.389   3.370   1.040
 2853SOL     OW 8614   4.328   3.549   1.073
 2853SOL    HW1 8615   4.277   3.528   0.995
 2853SOL    HW2 8616   4.373   3.467   1.095
 2854SOL     OW 8617   1.324   1.968   0.331
 2854SOL    HW1 8618   1.335   1.997   0.241
 2854SOL    HW2 8619   1.320   1.872   0.325
 2855SOL     OW 8620   3.746   0.879   0.444
 2855SOL    HW1 8621   3.797   0.801   0.466
 2855SOL    HW2 8622   3.769   0.897   0.353
 2856SOL     OW 8623   0.718   3.428   4.937
 2856SOL    HW1 8624   0.695   3.367   0.031
 2856SOL    HW2 8625   0.656   3.409   4.867
 2857SOL     OW 8626   0.146   4.651   3.857
 2857SOL    HW1 8627   0.174   4.706   3.930
 2857SOL    HW2 8628   0.227   4.613   3.822
 2858SOL     OW 8629   2.590   3.495   4.345
 2858SOL    HW1 8630   2.564   3.492   4.438
 2858SOL    HW2 8631   2.577   3.587   4.321
 2859SOL     OW 8632   4.500   0.911   1.560
 2859SOL    HW1 8633   4.481   0.896   1.467
 2859SOL    HW2 8634   4.415   0.930   1.599
 2860SOL     OW 8635   4.609   1.842   1.999
 2860SOL    HW1 8636   4.585   1.750   1.994
 2860SOL    HW2 8637   4.567   1.883   1.923
 2861SOL     OW 8638   0.460   2.405   2.732
 2861SOL    HW1 8639   0.449   2.488   2.778
 2861SOL    HW2 8640   0.480   2.431   2.642
 2862SOL     OW 8641   4.623   4.159   0.326
 2862SOL    HW1 8642   4.574   4.085   0.361
 2862SOL    HW2 8643   4.614   4.152   0.231
 2863SOL     OW 8644   0.251   3.557   3.684
 2863SOL    HW1 8645   0.293   3.504   3.752
 2863SOL    HW2 8646   0.324   3.590   3.632
 2864SOL     OW 8647   3.033   1.179   1.088
 2864SOL    HW1 8648   3.020   1.151   0.998
 2864SOL    HW2 8649   2.958   1.142   1.135
 2865SOL     OW 8650   3.936   3.355   1.178
 2865SOL    HW1 8651   3.862   3.410   1.201
 2865SOL    HW2 8652   4.008   3.416   1.164
 2866SOL     OW 8653   4.714   0.723   4.040
 2866SOL    HW1 8654   4.716   0.720   3.945
 2866SOL    HW2 8655   4.805   0.736   4.066
 2867SOL     OW 8656   2.750   4.424   2.538
 2867SOL    HW1 8657   2.738   4.431   2.633
 2867SOL    HW2 8658   2.703   4.345   2.513
 2868SOL     OW 8659   0.359   4.968   0.808
 2868SOL    HW1 8660   0.359   4.974   0.712
 2868SOL    HW2 8661   0.427   0.054   0.835
 2869SOL     OW 8662   3.122   2.398   3.362
 2869SOL    HW1 8663   3.082   2.485   3.353
 2869SOL    HW2 8664   3.123   2.363   3.272
 2870SOL     OW 8665   0.077   0.191   0.662
 2870SOL    HW1 8666   0.159   0.159   0.625
 2870SOL    HW2 8667   0.023   0.215   0.587
 2871SOL     OW 8668   0.412   1.014   1.771
 2871SOL    HW1 8669   0.487   0.998   1.829
 2871SOL    HW2 8670   0.355   0.938   1.784
 2872SOL     OW 8671   4.881   3.364   3.456
 2872SOL    HW1 8672   4.853   3.302   3.524
 2872SOL    HW2 8673   4.847   3.448   3.485
 2873SOL     OW 8674   3.662   4.313   4.766
 2873SOL    HW1 8675   3.745   4.276   4.797
 2873SOL    HW2 8676   3.596   4.280   4.828
 2874SOL     OW 8677   0.040   2.391   0.990
 2874SOL    HW1 8678   0.053   2.485   1.003
 2874SOL    HW2 8679   0.095   2.370   0.915
 2875SOL     OW 8680   4.041   2.593   3.847
 2875SOL    HW1 8681   4.130   2.618   3.825
 2875SOL    HW2 8682   4.007   2.551   3.768
 2876SOL     OW 8683   0.213   2.101   0.486
 2876SOL    HW1 8684   0.134   2.065   0.527
 2876SOL    HW2 8685   0.282   2.039   0.509
 2877SOL     OW 8686   2.070   3.485   2.588
 2877SOL    HW1 8687   2.138   3.543   2.624
 2877SOL    HW2 8688   2.118   3.419   2.539
 2878SOL     OW 8689   2.522   4.189   1.526
 2878SOL    HW1 8690   2.437   4.152   1.502
 2878SOL    HW2 8691   2.506   4.232   1.611
 2879SOL     OW 8692   2.337   2.534   2.263
 2879SOL    HW1 8693   2.336   2.443   2.292
 2879SOL    HW2 8694   2.428   2.562   2.276
 2880SOL     OW 8695   3.878   3.034   2.291
 2880SOL    HW1 8696   3.867   2.952   2.243
 2880SOL    HW2 8697   3.825   3.022   2.370
 2881SOL     OW 8698   0.390   4.837   2.794
 2881SOL    HW1 8699   0.351   4.750   2.799
 2881SOL    HW2 8700   0.337   4.884   2.731
 2882SOL     OW 8701   1.694   1.541   1.330
 2882SOL    HW1 8702   1.777   1.541   1.281
 2882SOL    HW2 8703   1.659   1.453   1.317
 2883SOL     OW 8704   3.657   2.237   3.659
 2883SOL    HW1 8705   3.711   2.187   3.598
 2883SOL    HW2 8706   3.637   2.176   3.729
 2884SOL     OW 8707   2.498   0.639   4.145
 2884SOL    HW1 8708   2.481   0.687   4.226
 2884SOL    HW2 8709   2.537   0.704   4.087
 2885SOL     OW 8710   2.067   3.679   0.822
 2885SOL    HW1 8711   2.159   3.664   0.841
 2885SOL    HW2 8712   2.061   3.674   0.726
 2886SOL     OW 8713   4.354   2.231   0.333
 2886SOL    HW1 8714   4.432   2.191   0.293
 2886SOL    HW2 8715   4.350   2.319   0.295
 2887SOL     OW 8716   0.950   4.556   2.519
 2887SOL    HW1 8717   0.876   4.554   2.581
 2887SOL    HW2 8718   0.918   4.511   2.442
 2888SOL     OW 8719   4.365   3.936   2.455
 2888SOL    HW1 8720   4.337   3.851   2.489
 2888SOL    HW2 8721   4.368   3.924   2.360
 2889SOL     OW 8722   0.257   2.020   4.344
 2889SOL    HW1 8723   0.290   1.969   4.419
 2889SOL    HW2 8724   0.178   2.062   4.377
 2890SOL     OW 8725   4.196   0.130   3.070
 2890SOL    HW1 8726   4.101   0.130   3.081
 2890SOL    HW2 8727   4.210   0.148   2.977
 2891SOL     OW 8728   0.959   3.812   3.830
 2891SOL    HW1 8729   1.055   3.807   3.827
 2891SOL    HW2 8730   0.930   3.757   3.758
 2892SOL     OW 8731   3.849   0.367   4.049
 2892SOL    HW1 8732   3.920   0.423   4.081
 2892SOL    HW2 8733   3.846   0.383   3.955
 2893SOL     OW 8734   4.700   2.743   2.105
 2893SOL    HW1 8735   4.786   2.706   2.123
 2893SOL    HW2 8736   4.711   2.837   2.120
 2894SOL     OW 8737   4.804   0.094   0.779
 2894SOL    HW1 8738   4.883   0.109   0.727
 2894SOL    HW2 8739   4.789   4.976   0.774
 2895SOL     OW 8740   0.529   0.249   1.643
 2895SOL    HW1 8741   0.526   0.205   1.557
 2895SOL    HW2 8742   0.618   0.233   1.674
 2896SOL     OW 8743   2.669   1.124   1.590
 2896SOL    HW1 8744   2.758   1.141   1.561
 2896SOL    HW2 8745   2.621   1.101   1.510
 2897SOL     OW 8746   2.115   2.470   4.858
 2897SOL    HW1 8747   2.190   2.510   4.902
 2897SOL    HW2 8748   2.084   2.538   4.797
 2898SOL     OW 8749   1.927   3.175   1.290
 2898SOL    HW1 8750   1.838   3.172   1.253
 2898SOL    HW2 8751   1.924   3.116   1.365
 2899SOL     OW 8752   2.869   0.724   3.088
 2899SOL    HW1 8753   2.828   0.768   3.014
 2899SOL    HW2 8754   2.880   0.793   3.153
 2900SOL     OW 8755   0.331   0.862   2.930
 2900SOL    HW1 8756   0.389   0.935   2.952
 2900SOL    HW2 8757   0.354   0.839   2.840
 2901SOL     OW 8758   4.248   2.475   3.192
 2901SOL    HW1 8759   4.255   2.565   3.224
 2901SOL    HW2 8760   4.333   2.436   3.213
 2902SOL     OW 8761   1.197   2.016   1.232
 2902SOL    HW1 8762   1.106   2.025   1.206
 2902SOL    HW2 8763   1.245   2.006   1.150
 2903SOL     OW 8764   4.003   0.894   4.409
 2903SOL    HW1 8765   4.098   0.897   4.400
 2903SOL    HW2 8766   3.977   0.816   4.360
 2904SOL     OW 8767   4.900   4.840   0.930
 2904SOL    HW1 8768   0.008   4.845   0.977
 2904SOL    HW2 8769   4.856   4.922   0.951
 2905SOL     OW 8770   4.748   4.317   3.939
 2905SOL    HW1 8771   4.700   4.395   3.912
 2905SOL    HW2 8772   4.837   4.332   3.907
 2906SOL     OW 8773   2.227   0.083   4.527
 2906SOL    HW1 8774   2.250   0.175   4.531
 2906SOL    HW2 8775   2.264   0.045   4.607
 2907SOL     OW 8776   0.737   3.915   2.661
 2907SOL    HW1 8777   0.678   3.840   2.659
 2907SOL    HW2 8778   0.771   3.922   2.572
 2908SOL     OW 8779   4.547   1.034   0.198
 2908SOL    HW1 8780   4.633   1.035   0.239
 2908SOL    HW2 8781   4.502   0.960   0.237
 2909SOL     OW 8782   1.968   4.249   3.483
 2909SOL    HW1 8783   1.941   4.158   3.499
 2909SOL    HW2 8784   1.936   4.267   3.394
 2910SOL     OW 8785   1.785   2.066   2.991
 2910SOL    HW1 8786   1.862   2.054   2.935
 2910SOL    HW2 8787   1.821   2.077   3.079
 2911SOL     OW 8788   1.673   2.378   3.815
 2911SOL    HW1 8789   1.643   2.325   3.741
 2911SOL    HW2 8790   1.731   2.319   3.864
 2912SOL     OW 8791   2.028   4.894   2.749
 2912SOL    HW1 8792   2.013   0.001   2.704
 2912SOL    HW2 8793   2.035   4.918   2.841
 2913SOL     OW 8794   2.117   2.614   3.956
 2913SOL    HW1 8795   2.172   2.648   4.027
 2913SOL    HW2 8796   2.178   2.600   3.884
 2914SOL     OW 8797   3.042   4.736   4.486
 2914SOL    HW1 8798   3.108   4.805   4.479
 2914SOL    HW2 8799   2.959   4.784   4.494
 2915SOL     OW 8800   3.653   1.187   2.576
 2915SOL    HW1 8801   3.650   1.154   2.486
 2915SOL    HW2 8802   3.622   1.277   2.570
 2916SOL     OW 8803   1.035   3.178   3.415
 2916SOL    HW1 8804   1.122   3.140   3.400
 2916SOL    HW2 8805   1.041   3.215   3.503
 2917SOL     OW 8806   4.143   3.265   0.598
 2917SOL    HW1 8807   4.124   3.353   0.566
 2917SOL    HW2 8808   4.060   3.218   0.592
 2918SOL     OW 8809   2.282   4.787   0.925
 2918SOL    HW1 8810   2.253   4.872   0.959
 2918SOL    HW2 8811   2.367   4.773   0.966
 2919SOL     OW 8812   1.414   4.070   2.499
 2919SOL    HW1 8813   1.410   4.004   2.430
 2919SOL    HW2 8814   1.326   4.109   2.500
 2920SOL     OW 8815   3.747   3.198   4.790
 2920SOL    HW1 8816   3.761   3.103   4.783
 2920SOL    HW2 8817   3.670   3.206   4.846
 2921SOL     OW 8818   4.675   4.202   1.827
 2921SOL    HW1 8819   4.735   4.152   1.883
 2921SOL    HW2 8820   4.731   4.261   1.778
 2922SOL     OW 8821   0.553   2.057   1.157
 2922SOL    HW1 8822   0.537   2.152   1.161
 2922SOL    HW2 8823   0.548   2.028   1.248
 2923SOL     OW 8824   3.446   0.936   3.456
 2923SOL    HW1 8825   3.371   0.981   3.416
 2923SOL    HW2 8826   3.523   0.979   3.418
 2924SOL     OW 8827   1.811   2.021   3.250
 2924SOL    HW1 8828   1.871   1.948   3.238
 2924SOL    HW2 8829   1.724   1.981   3.251
 2925SOL     OW 8830   1.708   4.941   4.510
 2925SOL    HW1 8831   1.739   0.056   4.517
 2925SOL    HW2 8832   1.663   4.938   4.425
 2926SOL     OW 8833   0.613   0.283   2.906
 2926SOL    HW1 8834   0.591   0.199   2.865
 2926SOL    HW2 8835   0.575   0.277   2.993
 2927SOL     OW 8836   0.752   0.520   2.896
 2927SOL    HW1 8837   0.703   0.440   2.879
 2927SOL    HW2 8838   0.764   0.521   2.991
 2928SOL     OW 8839   2.878   0.967   2.297
 2928SOL    HW1 8840   2.853   0.892   2.242
 2928SOL    HW2 8841   2.973   0.971   2.290
 2929SOL     OW 8842   1.973   1.900   4.792
 2929SOL    HW1 8843   1.923   1.876   4.715
 2929SOL    HW2 8844   1.989   1.817   4.837
 2930SOL     OW 8845   1.156   4.782   3.224
 2930SOL    HW1 8846   1.185   4.732   3.147
 2930SOL    HW2 8847   1.079   4.829   3.194
 2931SOL     OW 8848   2.876   3.938   0.572
 2931SOL    HW1 8849   2.791   3.981   0.569
 2931SOL    HW2 8850   2.910   3.956   0.659
 2932SOL     OW 8851   0.141   2.774   1.215
 2932SOL    HW1 8852   0.057   2.767   1.169
 2932SOL    HW2 8853   0.196   2.824   1.155
 2933SOL     OW 8854   0.341   3.532   2.880
 2933SOL    HW1 8855   0.271   3.585   2.841
 2933SOL    HW2 8856   0.380   3.588   2.947
 2934SOL     OW 8857   0.084   1.149   4.294
 2934SOL    HW1 8858   0.076   1.093   4.371
 2934SOL    HW2 8859   0.012   1.123   4.238
 2935SOL     OW 8860   2.643   3.790   4.520
 2935SOL    HW1 8861   2.623   3.767   4.430
 2935SOL    HW2 8862   2.654   3.885   4.519
 2936SOL     OW 8863   4.234   0.970   4.017
 2936SOL    HW1 8864   4.144   1.002   4.025
 2936SOL    HW2 8865   4.284   1.022   4.081
 2937SOL     OW 8866   4.239   2.381   2.642
 2937SOL    HW1 8867   4.231   2.461   2.694
 2937SOL    HW2 8868   4.333   2.374   2.624
 2938SOL     OW 8869   4.611   2.541   3.562
 2938SOL    HW1 8870   4.653   2.568   3.480
 2938SOL    HW2 8871   4.526   2.507   3.534
 2939SOL     OW 8872   3.164   1.158   3.465
 2939SOL    HW1 8873   3.172   1.179   3.372
 2939SOL    HW2 8874   3.197   1.236   3.510
 2940SOL     OW 8875   4.009   1.210   1.947
 2940SOL    HW1 8876   3.952   1.208   1.871
 2940SOL    HW2 8877   4.069   1.137   1.934
 2941SOL     OW 8878   1.712   2.736   1.646
 2941SOL    HW1 8879   1.700   2.775   1.559
 2941SOL    HW2 8880   1.728   2.643   1.628
 2942SOL     OW 8881   0.558   0.088   2.689
 2942SOL    HW1 8882   0.499   0.116   2.619
 2942SOL    HW2 8883   0.517   0.010   2.726
 2943SOL     OW 8884   4.194   0.421   1.321
 2943SOL    HW1 8885   4.113   0.461   1.354
 2943SOL    HW2 8886   4.259   0.491   1.326
 2944SOL     OW 8887   3.629   1.499   4.578
 2944SOL    HW1 8888   3.543   1.516   4.541
 2944SOL    HW2 8889   3.643   1.405   4.565
 2945SOL     OW 8890   0.290   1.293   3.664
 2945SOL    HW1 8891   0.243   1.295   3.581
 2945SOL    HW2 8892   0.331   1.206   3.666
 2946SOL     OW 8893   0.472   3.640   0.124
 2946SOL    HW1 8894   0.516   3.586   0.190
 2946SOL    HW2 8895   0.543   3.678   0.073
 2947SOL     OW 8896   4.440   0.525   2.647
 2947SOL    HW1 8897   4.455   0.436   2.678
 2947SOL    HW2 8898   4.363   0.555   2.695
 2948SOL     OW 8899   1.642   0.244   4.813
 2948SOL    HW1 8900   1.701   0.228   4.740
 2948SOL    HW2 8901   1.577   0.174   4.807
 2949SOL     OW 8902   4.798   3.695   4.831
 2949SOL    HW1 8903   4.727   3.733   4.779
 2949SOL    HW2 8904   4.796   3.743   4.914
 2950SOL     OW 8905   4.784   1.677   4.584
 2950SOL    HW1 8906   4.768   1.741   4.515
 2950SOL    HW2 8907   4.841   1.721   4.647
 2951SOL     OW 8908   2.300   1.782   4.405
 2951SOL    HW1 8909   2.211   1.773   4.371
 2951SOL    HW2 8910   2.332   1.863   4.365
 2952SOL     OW 8911   2.337   3.148   2.106
 2952SOL    HW1 8912   2.259   3.202   2.094
 2952SOL    HW2 8913   2.310   3.060   2.079
 2953SOL     OW 8914   4.288   4.768   1.636
 2953SOL    HW1 8915   4.343   4.809   1.569
 2953SOL    HW2 8916   4.337   4.781   1.717
 2954SOL     OW 8917   4.486   4.435   3.487
 2954SOL    HW1 8918   4.439   4.436   3.571
 2954SOL    HW2 8919   4.513   4.344   3.476
 2955SOL     OW 8920   2.849   1.671   1.556
 2955SOL    HW1 8921   2.848   1.692   1.463
 2955SOL    HW2 8922   2.797   1.740   1.597
 2956SOL     OW 8923   3.321   3.950   4.940
 2956SOL    HW1 8924   3.325   3.874   4.881
 2956SOL    HW2 8925   3.258   3.924   0.032
 2957SOL     OW 8926   0.118   1.425   4.249
 2957SOL    HW1 8927   0.200   1.389   4.283
 2957SOL    HW2 8928   0.057   1.352   4.252
 2958SOL     OW 8929   4.648   1.282   0.726
 2958SOL    HW1 8930   4.697   1.202   0.747
 2958SOL    HW2 8931   4.697   1.322   0.654
 2959SOL     OW 8932   0.496   0.460   0.372
 2959SOL    HW1 8933   0.521   0.389   0.313
 2959SOL    HW2 8934   0.513   0.540   0.322
 2960SOL     OW 8935   1.956   3.449   1.256
 2960SOL    HW1 8936   1.950   3.354   1.262
 2960SOL    HW2 8937   1.882   3.474   1.200
 2961SOL     OW 8938   4.475   4.011   2.987
 2961SOL    HW1 8939   4.497   4.077   3.053
 2961SOL    HW2 8940   4.386   3.985   3.008
 2962SOL     OW 8941   2.005   4.493   2.165
 2962SOL    HW1 8942   1.911   4.509   2.176
 2962SOL    HW2 8943   2.011   4.438   2.087
 2963SOL     OW 8944   4.751   1.857   4.364
 2963SOL    HW1 8945   4.731   1.935   4.416
 2963SOL    HW2 8946   4.755   1.889   4.274
 2964SOL     OW 8947   2.608   1.307   1.946
 2964SOL    HW1 8948   2.564   1.388   1.921
 2964SOL    HW2 8949   2.553   1.237   1.910
 2965SOL     OW 8950   3.308   2.685   3.597
 2965SOL    HW1 8951   3.378   2.692   3.663
 2965SOL    HW2 8952   3.315   2.595   3.564
 2966SOL     OW 8953   0.941   4.240   3.282
 2966SOL    HW1 8954   0.886   4.175   3.238
 2966SOL    HW2 8955   0.982   4.289   3.210
 2967SOL     OW 8956   2.984   4.408   2.961
 2967SOL    HW1 8957   2.960   4.474   3.026
 2967SOL    HW2 8958   3.075   4.427   2.940
 2968SOL     OW 8959   2.012   3.739   3.177
 2968SOL    HW1 8960   1.999   3.794   3.254
 2968SOL    HW2 8961   2.030   3.652   3.213
 2969SOL     OW 8962   3.135   3.394   1.915
 2969SOL    HW1 8963   3.073   3.467   1.913
 2969SOL    HW2 8964   3.140   3.365   1.824
 2970SOL     OW 8965   2.552   1.733   1.347
 2970SOL    HW1 8966   2.467   1.732   1.392
 2970SOL    HW2 8967   2.591   1.816   1.371
 2971SOL     OW 8968   1.268   3.558   3.415
 2971SOL    HW1 8969   1.316   3.487   3.371
 2971SOL    HW2 8970   1.240   3.519   3.498
 2972SOL     OW 8971   1.263   1.467   2.916
 2972SOL    HW1 8972   1.186   1.502   2.870
 2972SOL    HW2 8973   1.260   1.373   2.899
 2973SOL     OW 8974   3.084   0.057   1.149
 2973SOL    HW1 8975   3.013   0.002   1.118
 2973SOL    HW2 8976   3.111   0.018   1.232
 2974SOL     OW 8977   2.542   3.407   1.040
 2974SOL    HW1 8978   2.519   3.464   0.967
 2974SOL    HW2 8979   2.634   3.385   1.025
 2975SOL     OW 8980   0.212   1.741   1.912
 2975SOL    HW1 8981   0.211   1.787   1.828
 2975SOL    HW2 8982   0.225   1.810   1.977
 2976SOL     OW 8983   2.307   3.257   3.051
 2976SOL    HW1 8984   2.304   3.253   2.956
 2976SOL    HW2 8985   2.349   3.341   3.070
 2977SOL     OW 8986   0.684   3.736   2.425
 2977SOL    HW1 8987   0.679   3.656   2.372
 2977SOL    HW2 8988   0.647   3.712   2.510
 2978SOL     OW 8989   0.632   2.417   3.266
 2978SOL    HW1 8990   0.575   2.388   3.195
 2978SOL    HW2 8991   0.694   2.477   3.225
 2979SOL     OW 8992   1.257   1.594   3.165
 2979SOL    HW1 8993   1.206   1.549   3.232
 2979SOL    HW2 8994   1.257   1.534   3.091
 2980SOL     OW 8995   2.560   1.887   0.585
 2980SOL    HW1 8996   2.520   1.963   0.543
 2980SOL    HW2 8997   2.559   1.907   0.679
 2981SOL     OW 8998   1.493   2.698   3.177
 2981SOL    HW1 8999   1.567   2.641   3.196
 2981SOL    HW2 9000   1.455   2.717   3.263
 2982SOL     OW 9001   2.766   0.391   3.952
 2982SOL    HW1 9002   2.698   0.349   4.004
 2982SOL    HW2 9003   2.835   0.412   4.014
 2983SOL     OW 9004   3.161   4.737   3.073
 2983SOL    HW1 9005   3.101   4.680   3.123
 2983SOL    HW2 9006   3.222   4.771   3.139
 2984SOL     OW 9007   3.387   2.274   2.973
 2984SOL    HW1 9008   3.468   2.317   3.000
 2984SOL    HW2 9009   3.415   2.203   2.915
 2985SOL     OW 9010   3.494   1.876   3.334
 2985SOL    HW1 9011   3.554   1.889   3.261
 2985SOL    HW2 9012   3.525   1.797   3.378
 2986SOL     OW 9013   3.455   4.040   4.310
 2986SOL    HW1 9014   3.497   4.125   4.294
 2986SOL    HW2 9015   3.459   4.029   4.405
 2987SOL     OW 9016   2.769   0.328   0.404
 2987SOL    HW1 9017   2.705   0.380   0.452
 2987SOL    HW2 9018   2.749   0.344   0.312
 2988SOL     OW 9019   0.857   2.969   3.208
 2988SOL    HW1 9020   0.945   3.007   3.212
 2988SOL    HW2 9021   0.823   2.980   3.296
 2989SOL     OW 9022   3.009   3.695   4.329
 2989SOL    HW1 9023   2.992   3.715   4.236
 2989SOL    HW2 9024   3.101   3.715   4.341
 2990SOL     OW 9025   3.208   4.270   2.255
 2990SOL    HW1 9026   3.133   4.226   2.295
 2990SOL    HW2 9027   3.271   4.281   2.327
 2991SOL     OW 9028   4.900   2.646   1.421
 2991SOL    HW1 9029   4.887   2.610   1.333
 2991SOL    HW2 9030   4.819   2.694   1.439
 2992SOL     OW 9031   1.916   3.853   0.573
 2992SOL    HW1 9032   1.976   3.923   0.598
 2992SOL    HW2 9033   1.959   3.808   0.501
 2993SOL     OW 9034   0.212   3.852   0.913
 2993SOL    HW1 9035   0.282   3.786   0.910
 2993SOL    HW2 9036   0.210   3.880   1.004
 2994SOL     OW 9037   0.823   1.334   0.083
 2994SOL    HW1 9038   0.808   1.244   0.052
 2994SOL    HW2 9039   0.740   1.379   0.066
 2995SOL     OW 9040   3.746   2.387   3.320
 2995SOL    HW1 9041   3.816   2.403   3.257
 2995SOL    HW2 9042   3.787   2.335   3.389
 2996SOL     OW 9043   0.657   4.249   4.197
 2996SOL    HW1 9044   0.742   4.266   4.155
 2996SOL    HW2 9045   0.632   4.162   4.166
 2997SOL     OW 9046   1.305   1.274   3.958
 2997SOL    HW1 9047   1.253   1.257   3.880
 2997SOL    HW2 9048   1.352   1.192   3.974
 2998SOL     OW 9049   3.980   2.325   3.798
 2998SOL    HW1 9050   4.071   2.352   3.812
 2998SOL    HW2 9051   3.979   2.292   3.708
 2999SOL     OW 9052   1.673   1.205   3.372
 2999SOL    HW1 9053   1.745   1.179   3.429
 2999SOL    HW2 9054   1.594   1.171   3.415
 3000SOL     OW 9055   4.905   3.405   0.279
 3000SOL    HW1 9056   4.940   3.426   0.193
 3000SOL    HW2 9057   4.832   3.346   0.262
 3001SOL     OW 9058   1.455   2.884   2.743
 3001SOL    HW1 9059   1.467   2.792   2.769
 3001SOL    HW2 9060   1.437   2.881   2.649
 3002SOL     OW 9061   2.698   1.697   3.678
 3002SOL    HW1 9062   2.644   1.747   3.616
 3002SOL    HW2 9063   2.639   1.675   3.749
 3003SOL     OW 9064   2.289   2.676   1.428
 3003SOL    HW1 9065   2.268   2.742   1.495
 3003SOL    HW2 9066   2.253   2.711   1.347
 3004SOL     OW 9067   3.225   2.994   4.024
 3004SOL    HW1 9068   3.139   2.964   3.996
 3004SOL    HW2 9069   3.222   3.089   4.012
 3005SOL     OW 9070   0.241   0.020   0.523
 3005SOL    HW1 9071   0.316   0.012   0.464
 3005SOL    HW2 9072   0.230   4.908   0.559
 3006SOL     OW 9073   4.376   3.828   2.196
 3006SOL    HW1 9074   4.467   3.848   2.175
 3006SOL    HW2 9075   4.324   3.888   2.142
 3007SOL     OW 9076   4.414   4.524   0.008
 3007SOL    HW1 9077   4.334   4.490   4.945
 3007SOL    HW2 9078   4.385   4.575   0.083
 3008SOL     OW 9079   0.754   2.458   1.193
 3008SOL    HW1 9080   0.783   2.458   1.285
 3008SOL    HW2 9081   0.813   2.519   1.149
 3009SOL     OW 9082   0.267   2.395   1.616
 3009SOL    HW1 9083   0.301   2.482   1.636
 3009SOL    HW2 9084   0.339   2.335   1.635
 3010SOL     OW 9085   0.632   2.089   0.482
 3010SOL    HW1 9086   0.672   2.155   0.539
 3010SOL    HW2 9087   0.675   2.100   0.398
 3011SOL     OW 9088   0.329   1.710   3.551
 3011SOL    HW1 9089   0.354   1.691   3.641
 3011SOL    HW2 9090   0.324   1.806   3.548
 3012SOL     OW 9091   2.464   0.322   0.766
 3012SOL    HW1 9092   2.557   0.310   0.785
 3012SOL    HW2 9093   2.425   0.344   0.851
 3013SOL     OW 9094   4.599   2.487   2.127
 3013SOL    HW1 9095   4.669   2.447   2.180
 3013SOL    HW2 9096   4.626   2.578   2.117
 3014SOL     OW 9097   0.510   0.744   2.470
 3014SOL    HW1 9098   0.594   0.700   2.474
 3014SOL    HW2 9099   0.532   0.837   2.463
 3015SOL     OW 9100   2.612   4.156   0.540
 3015SOL    HW1 9101   2.597   4.115   0.454
 3015SOL    HW2 9102   2.608   4.083   0.602
 3016SOL     OW 9103   2.377   1.670   0.678
 3016SOL    HW1 9104   2.409   1.671   0.588
 3016SOL    HW2 9105   2.395   1.758   0.712
 3017SOL     OW 9106   1.961   2.297   2.590
 3017SOL    HW1 9107   2.056   2.299   2.603
 3017SOL    HW2 9108   1.925   2.331   2.673
 3018SOL     OW 9109   0.507   4.439   2.836
 3018SOL    HW1 9110   0.455   4.451   2.757
 3018SOL    HW2 9111   0.554   4.356   2.822
 3019SOL     OW 9112   0.146   3.304   1.113
 3019SOL    HW1 9113   0.195   3.221   1.116
 3019SOL    HW2 9114   0.170   3.342   1.029
 3020SOL     OW 9115   1.465   1.887   1.880
 3020SOL    HW1 9116   1.529   1.940   1.832
 3020SOL    HW2 9117   1.494   1.892   1.971
 3021SOL     OW 9118   0.564   3.926   4.446
 3021SOL    HW1 9119   0.551   3.861   4.377
 3021SOL    HW2 9120   0.497   3.992   4.430
 3022SOL     OW 9121   0.433   2.133   2.730
 3022SOL    HW1 9122   0.345   2.135   2.694
 3022SOL    HW2 9123   0.462   2.224   2.729
 3023SOL     OW 9124   1.870   2.399   3.378
 3023SOL    HW1 9125   1.838   2.317   3.415
 3023SOL    HW2 9126   1.907   2.446   3.453
 3024SOL     OW 9127   4.734   1.920   2.221
 3024SOL    HW1 9128   4.660   1.972   2.252
 3024SOL    HW2 9129   4.708   1.889   2.135
 3025SOL     OW 9130   1.741   4.670   0.076
 3025SOL    HW1 9131   1.822   4.655   0.126
 3025SOL    HW2 9132   1.752   4.619   4.973
 3026SOL     OW 9133   1.247   0.719   2.620
 3026SOL    HW1 9134   1.273   0.716   2.528
 3026SOL    HW2 9135   1.260   0.630   2.651
 3027SOL     OW 9136   1.742   1.798   0.837
 3027SOL    HW1 9137   1.680   1.735   0.799
 3027SOL    HW2 9138   1.828   1.769   0.805
 3028SOL     OW 9139   1.004   0.339   2.962
 3028SOL    HW1 9140   0.991   0.431   2.943
 3028SOL    HW2 9141   0.938   0.317   3.028
 3029SOL     OW 9142   0.721   2.338   3.794
 3029SOL    HW1 9143   0.751   2.330   3.885
 3029SOL    HW2 9144   0.768   2.269   3.747
 3030SOL     OW 9145   3.555   4.735   0.245
 3030SOL    HW1 9146   3.479   4.790   0.227
 3030SOL    HW2 9147   3.581   4.758   0.334
 3031SOL     OW 9148   3.698   0.279   1.011
 3031SOL    HW1 9149   3.728   0.365   1.039
 3031SOL    HW2 9150   3.765   0.249   0.949
 3032SOL     OW 9151   0.313   4.697   0.254
 3032SOL    HW1 9152   0.329   4.768   0.192
 3032SOL    HW2 9153   0.220   4.706   0.278
 3033SOL     OW 9154   0.137   2.591   0.444
 3033SOL    HW1 9155   0.189   2.643   0.383
 3033SOL    HW2 9156   0.152   2.500   0.418
 3034SOL     OW 9157   0.402   3.752   0.511
 3034SOL    HW1 9158   0.424   3.795   0.429
 3034SOL    HW2 9159   0.342   3.681   0.486
 3035SOL     OW 9160   2.368   0.816   0.071
 3035SOL    HW1 9161   2.456   0.790   0.044
 3035SOL    HW2 9162   2.372   0.912   0.074
 3036SOL     OW 9163   3.051   1.210   1.429
 3036SOL    HW1 9164   3.044   1.244   1.339
 3036SOL    HW2 9165   3.001   1.272   1.482
 3037SOL     OW 9166   3.633   3.875   1.109
 3037SOL    HW1 9167   3.641   3.865   1.204
 3037SOL    HW2 9168   3.578   3.802   1.081
 3038SOL     OW 9169   3.946   2.231   0.609
 3038SOL    HW1 9170   3.951   2.137   0.590
 3038SOL    HW2 9171   3.852   2.251   0.606
 3039SOL     OW 9172   1.806   4.543   3.283
 3039SOL    HW1 9173   1.776   4.452   3.290
 3039SOL    HW2 9174   1.901   4.538   3.282
 3040SOL     OW 9175   2.825   4.115   1.501
 3040SOL    HW1 9176   2.798   4.206   1.514
 3040SOL    HW2 9177   2.772   4.086   1.426
 3041SOL     OW 9178   4.160   0.446   0.064
 3041SOL    HW1 9179   4.124   0.482   4.959
 3041SOL    HW2 9180   4.140   0.512   0.131
 3042SOL     OW 9181   2.684   2.699   1.472
 3042SOL    HW1 9182   2.626   2.765   1.510
 3042SOL    HW2 9183   2.660   2.694   1.380
 3043SOL     OW 9184   3.500   4.538   3.617
 3043SOL    HW1 9185   3.590   4.519   3.641
 3043SOL    HW2 9186   3.480   4.475   3.548
 3044SOL     OW 9187   1.644   0.976   0.106
 3044SOL    HW1 9188   1.556   0.940   0.113
 3044SOL    HW2 9189   1.699   0.900   0.087
 3045SOL     OW 9190   2.332   4.435   2.971
 3045SOL    HW1 9191   2.272   4.360   2.970
 3045SOL    HW2 9192   2.299   4.493   2.903
 3046SOL     OW 9193   1.613   2.331   4.678
 3046SOL    HW1 9194   1.691   2.354   4.628
 3046SOL    HW2 9195   1.620   2.383   4.758
 3047SOL     OW 9196   0.118   1.656   2.708
 3047SOL    HW1 9197   0.033   1.700   2.698
 3047SOL    HW2 9198   0.175   1.724   2.744
 3048SOL     OW 9199   4.121   0.631   0.236
 3048SOL    HW1 9200   4.030   0.649   0.262
 3048SOL    HW2 9201   4.157   0.716   0.213
 3049SOL     OW 9202   3.764   3.604   0.586
 3049SOL    HW1 9203   3.718   3.573   0.508
 3049SOL    HW2 9204   3.716   3.566   0.659
 3050SOL     OW 9205   0.756   4.740   2.846
 3050SOL    HW1 9206   0.664   4.765   2.854
 3050SOL    HW2 9207   0.785   4.725   2.936
 3051SOL     OW 9208   3.708   3.154   2.769
 3051SOL    HW1 9209   3.662   3.235   2.793
 3051SOL    HW2 9210   3.789   3.157   2.819
 3052SOL     OW 9211   3.793   1.074   1.777
 3052SOL    HW1 9212   3.739   1.044   1.850
 3052SOL    HW2 9213   3.806   0.997   1.723
 3053SOL     OW 9214   2.252   0.828   3.296
 3053SOL    HW1 9215   2.189   0.900   3.291
 3053SOL    HW2 9216   2.327   0.858   3.244
 3054SOL     OW 9217   4.971   2.077   0.191
 3054SOL    HW1 9218   0.054   2.005   0.169
 3054SOL    HW2 9219   4.922   2.093   0.111
 3055SOL     OW 9220   1.245   3.176   4.672
 3055SOL    HW1 9221   1.167   3.141   4.629
 3055SOL    HW2 9222   1.303   3.201   4.600
 3056SOL     OW 9223   0.214   2.356   0.352
 3056SOL    HW1 9224   0.198   2.275   0.402
 3056SOL    HW2 9225   0.281   2.331   0.288
 3057SOL     OW 9226   2.724   4.785   1.420
 3057SOL    HW1 9227   2.743   4.741   1.502
 3057SOL    HW2 9228   2.776   4.865   1.422
 3058SOL     OW 9229   1.987   4.322   3.004
 3058SOL    HW1 9230   2.063   4.326   3.062
 3058SOL    HW2 9231   1.917   4.286   3.059
 3059SOL     OW 9232   2.649   4.074   2.095
 3059SOL    HW1 9233   2.734   4.112   2.071
 3059SOL    HW2 9234   2.617   4.035   2.013
 3060SOL     OW 9235   2.211   0.715   1.389
 3060SOL    HW1 9236   2.138   0.664   1.353
 3060SOL    HW2 9237   2.182   0.741   1.476
 3061SOL     OW 9238   4.653   3.870   2.543
 3061SOL    HW1 9239   4.620   3.865   2.453
 3061SOL    HW2 9240   4.574   3.873   2.597
 3062SOL     OW 9241   4.179   0.970   2.102
 3062SOL    HW1 9242   4.121   0.992   2.175
 3062SOL    HW2 9243   4.267   0.975   2.138
 3063SOL     OW 9244   4.519   3.395   1.244
 3063SOL    HW1 9245   4.583   3.466   1.239
 3063SOL    HW2 9246   4.570   3.315   1.230
 3064SOL     OW 9247   0.200   0.812   0.375
 3064SOL    HW1 9248   0.156   0.885   0.419
 3064SOL    HW2 9249   0.246   0.767   0.446
 3065SOL     OW 9250   4.741   0.864   2.451
 3065SOL    HW1 9251   4.761   0.921   2.377
 3065SOL    HW2 9252   4.652   0.834   2.435
 3066SOL     OW 9253   2.415   4.932   3.206
 3066SOL    HW1 9254   2.369   4.943   3.289
 3066SOL    HW2 9255   2.405   0.041   3.162
 3067SOL     OW 9256   2.530   4.592   4.935
 3067SOL    HW1 9257   2.516   4.510   4.887
 3067SOL    HW2 9258   2.580   4.567   0.036
 3068SOL     OW 9259   1.697   4.122   2.403
 3068SOL    HW1 9260   1.638   4.152   2.472
 3068SOL    HW2 9261   1.776   4.096   2.450
 3069SOL     OW 9262   3.707   0.861   3.691
 3069SOL    HW1 9263   3.736   0.807   3.765
 3069SOL    HW2 9264   3.614   0.877   3.709
 3070SOL     OW 9265   4.705   2.045   4.110
 3070SOL    HW1 9266   4.692   1.994   4.031
 3070SOL    HW2 9267   4.724   2.134   4.078
 3071SOL     OW 9268   3.845   1.678   0.051
 3071SOL    HW1 9269   3.781   1.726   0.104
 3071SOL    HW2 9270   3.837   1.716   4.940
 3072SOL     OW 9271   3.121   3.450   2.938
 3072SOL    HW1 9272   3.196   3.507   2.956
 3072SOL    HW2 9273   3.063   3.503   2.883
 3073SOL     OW 9274   2.866   3.405   4.689
 3073SOL    HW1 9275   2.857   3.444   4.602
 3073SOL    HW2 9276   2.813   3.325   4.685
 3074SOL     OW 9277   1.483   2.056   4.343
 3074SOL    HW1 9278   1.532   1.985   4.385
 3074SOL    HW2 9279   1.399   2.057   4.389
 3075SOL     OW 9280   2.580   3.145   4.342
 3075SOL    HW1 9281   2.627   3.227   4.358
 3075SOL    HW2 9282   2.512   3.168   4.279
 3076SOL     OW 9283   3.228   0.648   4.551
 3076SOL    HW1 9284   3.294   0.695   4.499
 3076SOL    HW2 9285   3.272   0.568   4.579
 3077SOL     OW 9286   0.652   2.820   0.761
 3077SOL    HW1 9287   0.572   2.775   0.787
 3077SOL    HW2 9288   0.710   2.751   0.731
 3078SOL     OW 9289   3.414   3.014   0.385
 3078SOL    HW1 9290   3.324   3.031   0.355
 3078SOL    HW2 9291   3.406   2.937   0.441
 3079SOL     OW 9292   3.832   1.911   1.909
 3079SOL    HW1 9293   3.818   1.853   1.834
 3079SOL    HW2 9294   3.744   1.928   1.942
 3080SOL     OW 9295   0.507   1.716   2.733
 3080SOL    HW1 9296   0.482   1.714   2.641
 3080SOL    HW2 9297   0.554   1.634   2.747
 3081SOL     OW 9298   0.666   1.275   0.377
 3081SOL    HW1 9299   0.746   1.235   0.410
 3081SOL    HW2 9300   0.657   1.241   0.288
 3082SOL     OW 9301   2.526   3.782   1.196
 3082SOL    HW1 9302   2.578   3.793   1.117
 3082SOL    HW2 9303   2.525   3.688   1.212
 3083SOL     OW 9304   4.878   0.563   1.608
 3083SOL    HW1 9305   4.810   0.626   1.634
 3083SOL    HW2 9306   4.865   0.488   1.667
 3084SOL     OW 9307   4.470   3.237   4.325
 3084SOL    HW1 9308   4.491   3.168   4.262
 3084SOL    HW2 9309   4.534   3.225   4.396
 3085SOL     OW 9310   1.600   2.634   2.665
 3085SOL    HW1 9311   1.559   2.676   2.589
 3085SOL    HW2 9312   1.584   2.541   2.652
 3086SOL     OW 9313   0.258   4.682   2.178
 3086SOL    HW1 9314   0.207   4.703   2.256
 3086SOL    HW2 9315   0.287   4.767   2.145
 3087SOL     OW 9316   0.746   4.654   0.145
 3087SOL    HW1 9317   0.710   4.742   0.153
 3087SOL    HW2 9318   0.738   4.633   0.051
 3088SOL     OW 9319   0.884   0.085   4.506
 3088SOL    HW1 9320   0.907   0.093   4.598
 3088SOL    HW2 9321   0.897   0.173   4.470
 3089SOL     OW 9322   2.424   4.360   0.640
 3089SOL    HW1 9323   2.483   4.286   0.626
 3089SOL    HW2 9324   2.381   4.374   0.555
 3090SOL     OW 9325   2.546   2.430   1.179
 3090SOL    HW1 9326   2.606   2.413   1.106
 3090SOL    HW2 9327   2.556   2.523   1.197
 3091SOL     OW 9328   4.108   3.805   0.927
 3091SOL    HW1 9329   4.048   3.749   0.877
 3091SOL    HW2 9330   4.078   3.796   1.018
 3092SOL     OW 9331   1.533   4.090   2.751
 3092SOL    HW1 9332   1.583   4.016   2.717
 3092SOL    HW2 9333   1.477   4.117   2.679
 3093SOL     OW 9334   3.459   2.827   3.402
 3093SOL    HW1 9335   3.451   2.783   3.487
 3093SOL    HW2 9336   3.473   2.755   3.340
 3094SOL     OW 9337   1.085   4.376   3.492
 3094SOL    HW1 9338   1.124   4.459   3.465
 3094SOL    HW2 9339   1.041   4.343   3.414
 3095SOL     OW 9340   0.004   1.043   4.704
 3095SOL    HW1 9341   4.922   1.116   4.725
 3095SOL    HW2 9342   0.045   1.020   4.788
 3096SOL     OW 9343   0.136   1.843   2.336
 3096SOL    HW1 9344   0.045   1.834   2.362
 3096SOL    HW2 9345   0.155   1.936   2.346
 3097SOL     OW 9346   0.533   0.917   0.133
 3097SOL    HW1 9347   0.503   0.849   0.072
 3097SOL    HW2 9348   0.578   0.869   0.202
 3098SOL     OW 9349   3.098   2.826   0.902
 3098SOL    HW1 9350   3.106   2.862   0.990
 3098SOL    HW2 9351   3.183   2.787   0.884
 3099SOL     OW 9352   0.801   3.383   3.508
 3099SOL    HW1 9353   0.802   3.423   3.421
 3099SOL    HW2 9354   0.849   3.301   3.496
 3100SOL     OW 9355   2.064   1.349   1.222
 3100SOL    HW1 9356   1.983   1.307   1.195
 3100SOL    HW2 9357   2.118   1.351   1.143
 3101SOL     OW 9358   2.423   1.467   1.846
 3101SOL    HW1 9359   2.342   1.512   1.870
 3101SOL    HW2 9360   2.428   1.475   1.751
 3102SOL     OW 9361   4.437   1.881   1.737
 3102SOL    HW1 9362   4.376   1.910   1.805
 3102SOL    HW2 9363   4.432   1.948   1.669
 3103SOL     OW 9364   1.689   1.533   1.033
 3103SOL    HW1 9365   1.769   1.491   1.002
 3103SOL    HW2 9366   1.625   1.517   0.963
 3104SOL     OW 9367   3.883   0.282   0.808
 3104SOL    HW1 9368   3.861   0.283   0.714
 3104SOL    HW2 9369   3.973   0.249   0.811
 3105SOL     OW 9370   1.809   1.705   1.852
 3105SOL    HW1 9371   1.790   1.700   1.758
 3105SOL    HW2 9372   1.823   1.614   1.879
 3106SOL     OW 9373   4.272   3.863   1.449
 3106SOL    HW1 9374   4.347   3.832   1.501
 3106SOL    HW2 9375   4.293   3.839   1.359
 3107SOL     OW 9376   0.803   3.966   2.180
 3107SOL    HW1 9377   0.842   4.030   2.240
 3107SOL    HW2 9378   0.748   3.911   2.236
 3108SOL     OW 9379   3.735   0.754   3.944
 3108SOL    HW1 9380   3.749   0.812   4.019
 3108SOL    HW2 9381   3.652   0.711   3.961
 3109SOL     OW 9382   1.974   4.906   2.205
 3109SOL    HW1 9383   1.922   4.849   2.262
 3109SOL    HW2 9384   2.043   4.940   2.262
 3110SOL     OW 9385   3.383   2.892   1.673
 3110SOL    HW1 9386   3.476   2.878   1.654
 3110SOL    HW2 9387   3.374   2.866   1.764
 3111SOL     OW 9388   2.771   3.034   4.074
 3111SOL    HW1 9389   2.829   3.075   4.139
 3111SOL    HW2 9390   2.762   2.943   4.105
 3112SOL     OW 9391   3.131   2.318   3.098
 3112SOL    HW1 9392   3.211   2.268   3.077
 3112SOL    HW2 9393   3.138   2.397   3.045
 3113SOL     OW 9394   3.863   2.478   0.793
 3113SOL    HW1 9395   3.783   2.514   0.831
 3113SOL    HW2 9396   3.831   2.415   0.727
 3114SOL     OW 9397   0.145   1.839   0.147
 3114SOL    HW1 9398   0.175   1.854   0.057
 3114SOL    HW2 9399   0.186   1.756   0.172
 3115SOL     OW 9400   0.958   0.383   4.209
 3115SOL    HW1 9401   0.957   0.476   4.232
 3115SOL    HW2 9402   0.888   0.374   4.144
 3116SOL     OW 9403   0.058   1.616   0.556
 3116SOL    HW1 9404   0.154   1.622   0.556
 3116SOL    HW2 9405   0.033   1.622   0.464
 3117SOL     OW 9406   4.875   4.361   0.050
 3117SOL    HW1 9407   4.935   4.369   0.124
 3117SOL    HW2 9408   4.896   4.436   4.970
 3118SOL     OW 9409   0.560   4.795   4.113
 3118SOL    HW1 9410   0.611   4.738   4.170
 3118SOL    HW2 9411   0.474   4.753   4.109
 3119SOL     OW 9412   3.913   3.244   0.198
 3119SOL    HW1 9413   3.888   3.284   0.115
 3119SOL    HW2 9414   3.867   3.160   0.198
 3120SOL     OW 9415   4.297   3.715   2.596
 3120SOL    HW1 9416   4.313   3.741   2.686
 3120SOL    HW2 9417   4.334   3.627   2.590
 3121SOL     OW 9418   2.516   1.214   2.631
 3121SOL    HW1 9419   2.588   1.187   2.574
 3121SOL    HW2 9420   2.544   1.298   2.668
 3122SOL     OW 9421   0.671   2.021   4.606
 3122SOL    HW1 9422   0.629   2.016   4.692
 3122SOL    HW2 9423   0.723   2.101   4.609
 3123SOL     OW 9424   2.850   2.360   2.878
 3123SOL    HW1 9425   2.838   2.455   2.877
 3123SOL    HW2 9426   2.829   2.333   2.967
 3124SOL     OW 9427   1.758   4.310   2.152
 3124SOL    HW1 9428   1.692   4.377   2.167
 3124SOL    HW2 9429   1.762   4.261   2.234
 3125SOL     OW 9430   3.523   0.529   0.387
 3125SOL    HW1 9431   3.447   0.543   0.444
 3125SOL    HW2 9432   3.485   0.510   0.301
 3126SOL     OW 9433   3.987   3.009   3.692
 3126SOL    HW1 9434   3.919   3.056   3.740
 3126SOL    HW2 9435   3.954   3.006   3.602
 3127SOL     OW 9436   1.909   0.156   1.380
 3127SOL    HW1 9437   1.921   0.068   1.346
 3127SOL    HW2 9438   1.887   0.143   1.473
 3128SOL     OW 9439   1.725   1.329   1.645
 3128SOL    HW1 9440   1.641   1.369   1.666
 3128SOL    HW2 9441   1.718   1.304   1.553
 3129SOL     OW 9442   0.055   0.089   4.196
 3129SOL    HW1 9443   0.001   0.012   4.215
 3129SOL    HW2 9444   0.120   0.089   4.266
 3130SOL     OW 9445   1.075   2.034   3.606
 3130SOL    HW1 9446   1.129   1.961   3.635
 3130SOL    HW2 9447   1.120   2.067   3.528
 3131SOL     OW 9448   0.424   3.152   1.594
 3131SOL    HW1 9449   0.372   3.079   1.627
 3131SOL    HW2 9450   0.413   3.221   1.659
 3132SOL     OW 9451   3.979   4.236   2.648
 3132SOL    HW1 9452   4.071   4.216   2.631
 3132SOL    HW2 9453   3.978   4.271   2.737
 3133SOL     OW 9454   0.351   4.097   4.381
 3133SOL    HW1 9455   0.335   4.161   4.312
 3133SOL    HW2 9456   0.333   4.144   4.462
 3134SOL     OW 9457   2.805   1.605   4.576
 3134SOL    HW1 9458   2.805   1.679   4.636
 3134SOL    HW2 9459   2.765   1.533   4.626
 3135SOL     OW 9460   0.935   4.333   3.705
 3135SOL    HW1 9461   0.861   4.315   3.646
 3135SOL    HW2 9462   1.005   4.362   3.647
 3136SOL     OW 9463   1.863   3.920   4.406
 3136SOL    HW1 9464   1.786   3.923   4.463
 3136SOL    HW2 9465   1.859   3.834   4.365
 3137SOL     OW 9466   3.456   4.001   0.686
 3137SOL    HW1 9467   3.473   4.051   0.606
 3137SOL    HW2 9468   3.536   4.012   0.738
 3138SOL     OW 9469   4.174   3.100   0.356
 3138SOL    HW1 9470   4.196   3.125   0.445
 3138SOL    HW2 9471   4.195   3.177   0.303
 3139SOL     OW 9472   2.039   2.347   3.057
 3139SOL    HW1 9473   2.108   2.386   3.110
 3139SOL    HW2 9474   2.075   2.343   2.968
 3140SOL     OW 9475   3.741   3.751   1.362
 3140SOL    HW1 9476   3.813   3.750   1.425
 3140SOL    HW2 9477   3.718   3.843   1.353
 3141SOL     OW 9478   1.914   4.552   1.838
 3141SOL    HW1 9479   1.954   4.475   1.878
 3141SOL    HW2 9480   1.902   4.528   1.746
 3142SOL     OW 9481   2.026   0.368   3.229
 3142SOL    HW1 9482   1.982   0.339   3.310
 3142SOL    HW2 9483   2.082   0.294   3.205
 3143SOL     OW 9484   1.509   2.758   2.444
 3143SOL    HW1 9485   1.549   2.842   2.419
 3143SOL    HW2 9486   1.429   2.754   2.392
 3144SOL     OW 9487   0.341   0.813   2.671
 3144SOL    HW1 9488   0.404   0.790   2.602
 3144SOL    HW2 9489   0.269   0.752   2.659
 3145SOL     OW 9490   1.012   1.510   4.646
 3145SOL    HW1 9491   0.959   1.447   4.597
 3145SOL    HW2 9492   1.048   1.568   4.579
 3146SOL     OW 9493   4.520   1.796   3.173
 3146SOL    HW1 9494   4.559   1.866   3.225
 3146SOL    HW2 9495   4.439   1.834   3.139
 3147SOL     OW 9496   1.953   4.004   2.106
 3147SOL    HW1 9497   1.983   3.916   2.082
 3147SOL    HW2 9498   2.006   4.026   2.183
 3148SOL     OW 9499   4.898   2.097   4.907
 3148SOL    HW1 9500   4.947   2.171   4.871
 3148SOL    HW2 9501   4.811   2.105   4.869
 3149SOL     OW 9502   2.878   3.804   3.853
 3149SOL    HW1 9503   2.887   3.729   3.913
 3149SOL    HW2 9504   2.901   3.768   3.767
 3150SOL     OW 9505   4.554   0.566   0.233
 3150SOL    HW1 9506   4.512   0.492   0.277
 3150SOL    HW2 9507   4.556   0.541   0.141
 3151SOL     OW 9508   4.315   1.892   1.066
 3151SOL    HW1 9509   4.390   1.946   1.041
 3151SOL    HW2 9510   4.281   1.858   0.983
 3152SOL     OW 9511   0.320   4.707   1.551
 3152SOL    HW1 9512   0.304   4.788   1.600
 3152SOL    HW2 9513   0.347   4.736   1.464
 3153SOL     OW 9514   3.370   0.275   4.342
 3153SOL    HW1 9515   3.382   0.303   4.432
 3153SOL    HW2 9516   3.458   0.270   4.305
 3154SOL     OW 9517   2.574   1.708   1.924
 3154SOL    HW1 9518   2.524   1.765   1.983
 3154SOL    HW2 9519   2.509   1.647   1.889
 3155SOL     OW 9520   3.279   4.055   4.097
 3155SOL    HW1 9521   3.276   4.063   4.192
 3155SOL    HW2 9522   3.368   4.079   4.073
 3156SOL     OW 9523   4.504   2.866   3.524
 3156SOL    HW1 9524   4.595   2.893   3.532
 3156SOL    HW2 9525   4.480   2.837   3.612
 3157SOL     OW 9526   1.608   4.165   1.966
 3157SOL    HW1 9527   1.563   4.227   1.909
 3157SOL    HW2 9528   1.654   4.220   2.030
 3158SOL     OW 9529   4.561   4.602   4.779
 3158SOL    HW1 9530   4.526   4.571   4.696
 3158SOL    HW2 9531   4.499   4.571   4.845
 3159SOL     OW 9532   1.418   1.706   3.380
 3159SOL    HW1 9533   1.385   1.646   3.313
 3159SOL    HW2 9534   1.472   1.769   3.332
 3160SOL     OW 9535   0.621   2.465   0.209
 3160SOL    HW1 9536   0.706   2.444   0.170
 3160SOL    HW2 9537   0.632   2.554   0.243
 3161SOL     OW 9538   3.643   0.176   3.542
 3161SOL    HW1 9539   3.678   0.255   3.582
 3161SOL    HW2 9540   3.560   0.160   3.588
 3162SOL     OW 9541   3.285   0.327   3.876
 3162SOL    HW1 9542   3.192   0.304   3.884
 3162SOL    HW2 9543   3.317   0.274   3.803
 3163SOL     OW 9544   3.103   2.001   4.498
 3163SOL    HW1 9545   3.180   1.993   4.441
 3163SOL    HW2 9546   3.098   2.094   4.519
 3164SOL     OW 9547   1.292   3.678   0.953
 3164SOL    HW1 9548   1.298   3.774   0.955
 3164SOL    HW2 9549   1.199   3.660   0.942
 3165SOL     OW 9550   4.450   4.498   0.694
 3165SOL    HW1 9551   4.373   4.441   0.691
 3165SOL    HW2 9552   4.487   4.484   0.781
 3166SOL     OW 9553   4.847   1.290   4.776
 3166SOL    HW1 9554   4.782   1.320   4.712
 3166SOL    HW2 9555   4.799   1.286   4.858
 3167SOL     OW 9556   1.291   3.890   1.637
 3167SOL    HW1 9557   1.342   3.890   1.556
 3167SOL    HW2 9558   1.291   3.799   1.665
 3168SOL     OW 9559   3.498   4.661   4.642
 3168SOL    HW1 9560   3.424   4.717   4.618
 3168SOL    HW2 9561   3.569   4.722   4.664
 3169SOL     OW 9562   3.234   1.977   3.036
 3169SOL    HW1 9563   3.165   2.032   3.000
 3169SOL    HW2 9564   3.305   1.983   2.973
 3170SOL     OW 9565   4.130   1.871   0.285
 3170SOL    HW1 9566   4.057   1.907   0.235
 3170SOL    HW2 9567   4.203   1.869   0.222
 3171SOL     OW 9568   4.144   4.830   1.995
 3171SOL    HW1 9569   4.092   4.782   1.930
 3171SOL    HW2 9570   4.227   4.782   2.000
 3172SOL     OW 9571   3.425   1.317   0.260
 3172SOL    HW1 9572   3.429   1.244   0.198
 3172SOL    HW2 9573   3.485   1.292   0.331
 3173SOL     OW 9574   1.302   1.737   0.656
 3173SOL    HW1 9575   1.347   1.821   0.656
 3173SOL    HW2 9576   1.305   1.708   0.747
 3174SOL     OW 9577   2.327   4.778   2.223
 3174SOL    HW1 9578   2.281   4.772   2.307
 3174SOL    HW2 9579   2.268   4.738   2.160
 3175SOL     OW 9580   1.716   0.726   0.042
 3175SOL    HW1 9581   1.762   0.686   0.116
 3175SOL    HW2 9582   1.722   0.660   4.949
 3176SOL     OW 9583   1.075   3.162   1.309
 3176SOL    HW1 9584   1.073   3.214   1.389
 3176SOL    HW2 9585   1.014   3.206   1.250
 3177SOL     OW 9586   0.686   2.098   1.575
 3177SOL    HW1 9587   0.766   2.113   1.625
 3177SOL    HW2 9588   0.650   2.185   1.559
 3178SOL     OW 9589   0.567   1.917   4.171
 3178SOL    HW1 9590   0.574   1.997   4.222
 3178SOL    HW2 9591   0.509   1.939   4.098
 3179SOL     OW 9592   2.332   0.014   3.476
 3179SOL    HW1 9593   2.283   4.960   3.552
 3179SOL    HW2 9594   2.332   0.109   3.483
 3180SOL     OW 9595   3.769   4.139   2.985
 3180SOL    HW1 9596   3.717   4.135   2.904
 3180SOL    HW2 9597   3.710   4.105   3.052
 3181SOL     OW 9598   4.638   0.174   2.775
 3181SOL    HW1 9599   4.651   0.096   2.829
 3181SOL    HW2 9600   4.570   0.223   2.821
 3182SOL     OW 9601   0.969   2.192   1.416
 3182SOL    HW1 9602   0.913   2.132   1.366
 3182SOL    HW2 9603   1.038   2.218   1.354
 3183SOL     OW 9604   3.049   0.409   4.368
 3183SOL    HW1 9605   3.039   0.351   4.292
 3183SOL    HW2 9606   3.135   0.449   4.357
 3184SOL     OW 9607   4.867   0.855   1.324
 3184SOL    HW1 9608   4.844   0.866   1.231
 3184SOL    HW2 9609   4.913   0.771   1.327
 3185SOL     OW 9610   2.680   2.279   4.520
 3185SOL    HW1 9611   2.595   2.267   4.479
 3185SOL    HW2 9612   2.738   2.217   4.475
 3186SOL     OW 9613   0.277   2.259   2.151
 3186SOL    HW1 9614   0.352   2.317   2.160
 3186SOL    HW2 9615   0.281   2.229   2.060
 3187SOL     OW 9616   1.312   0.204   1.537
 3187SOL    HW1 9617   1.256   0.150   1.481
 3187SOL    HW2 9618   1.336   0.146   1.610
 3188SOL     OW 9619   4.410   2.268   3.969
 3188SOL    HW1 9620   4.451   2.260   4.055
 3188SOL    HW2 9621   4.424   2.183   3.928
 3189SOL     OW 9622   3.064   3.604   2.574
 3189SOL    HW1 9623   2.999   3.610   2.645
 3189SOL    HW2 9624   3.060   3.513   2.546
 3190SOL     OW 9625   2.627   1.798   4.134
 3190SOL    HW1 9626   2.716   1.824   4.159
 3190SOL    HW2 9627   2.598   1.867   4.074
 3191SOL     OW 9628   2.207   0.553   2.801
 3191SOL    HW1 9629   2.231   0.628   2.746
 3191SOL    HW2 9630   2.149   0.589   2.867
 3192SOL     OW 9631   3.808   3.647   2.753
 3192SOL    HW1 9632   3.841   3.560   2.733
 3192SOL    HW2 9633   3.887   3.699   2.771
 3193SOL     OW 9634   2.420   3.001   3.342
 3193SOL    HW1 9635   2.428   3.080   3.396
 3193SOL    HW2 9636   2.440   2.929   3.401
 3194SOL     OW 9637   2.441   1.238   3.226
 3194SOL    HW1 9638   2.517   1.247   3.284
 3194SOL    HW2 9639   2.370   1.283   3.272
 3195SOL     OW 9640   0.427   4.393   4.704
 3195SOL    HW1 9641   0.400   4.305   4.729
 3195SOL    HW2 9642   0.515   4.403   4.739
 3196SOL     OW 9643   3.268   0.907   3.973
 3196SOL    HW1 9644   3.211   0.983   3.966
 3196SOL    HW2 9645   3.305   0.897   3.884
 3197SOL     OW 9646   0.980   0.604   2.279
 3197SOL    HW1 9647   1.019   0.664   2.216
 3197SOL    HW2 9648   1.054   0.569   2.328
 3198SOL     OW 9649   3.963   4.162   3.800
 3198SOL    HW1 9650   3.920   4.100   3.741
 3198SOL    HW2 9651   3.892   4.195   3.856
 3199SOL     OW 9652   0.630   1.326   2.363
 3199SOL    HW1 9653   0.658   1.284   2.281
 3199SOL    HW2 9654   0.537   1.346   2.349
 3200SOL     OW 9655   3.560   1.181   0.456
 3200SOL    HW1 9656   3.525   1.100   0.418
 3200SOL    HW2 9657   3.643   1.154   0.495
 3201SOL     OW 9658   0.129   1.433   3.834
 3201SOL    HW1 9659   0.144   1.524   3.808
 3201SOL    HW2 9660   0.188   1.382   3.778
 3202SOL     OW 9661   2.524   2.995   1.146
 3202SOL    HW1 9662   2.471   3.015   1.223
 3202SOL    HW2 9663   2.480   3.041   1.074
 3203SOL     OW 9664   3.287   1.149   2.165
 3203SOL    HW1 9665   3.362   1.207   2.180
 3203SOL    HW2 9666   3.303   1.109   2.080
 3204SOL     OW 9667   0.901   1.206   3.211
 3204SOL    HW1 9668   0.874   1.297   3.225
 3204SOL    HW2 9669   0.829   1.154   3.247
 3205SOL     OW 9670   1.008   0.348   1.641
 3205SOL    HW1 9671   0.939   0.400   1.682
 3205SOL    HW2 9672   0.989   0.258   1.667
 3206SOL     OW 9673   0.269   3.707   3.118
 3206SOL    HW1 9674   0.262   3.797   3.085
 3206SOL    HW2 9675   0.183   3.688   3.153
 3207SOL     OW 9676   0.207   4.858   1.008
 3207SOL    HW1 9677   0.261   4.892   0.936
 3207SOL    HW2 9678   0.244   4.772   1.027
 3208SOL     OW 9679   3.276   0.993   1.080
 3208SOL    HW1 9680   3.298   1.052   1.007
 3208SOL    HW2 9681   3.239   1.050   1.147
 3209SOL     OW 9682   4.670   3.547   1.512
 3209SOL    HW1 9683   4.746   3.489   1.509
 3209SOL    HW2 9684   4.680   3.602   1.434
 3210SOL     OW 9685   1.531   0.697   2.088
 3210SOL    HW1 9686   1.591   0.624   2.105
 3210SOL    HW2 9687   1.527   0.702   1.992
 3211SOL     OW 9688   3.724   4.715   3.407
 3211SOL    HW1 9689   3.662   4.770   3.455
 3211SOL    HW2 9690   3.735   4.638   3.462
 3212SOL     OW 9691   4.381   3.056   1.303
 3212SOL    HW1 9692   4.390   3.090   1.392
 3212SOL    HW2 9693   4.325   2.979   1.312
 3213SOL     OW 9694   2.418   0.835   4.350
 3213SOL    HW1 9695   2.413   0.878   4.265
 3213SOL    HW2 9696   2.361   0.888   4.407
 3214SOL     OW 9697   4.741   2.872   0.815
 3214SOL    HW1 9698   4.718   2.788   0.856
 3214SOL    HW2 9699   4.739   2.854   0.721
 3215SOL     OW 9700   0.288   0.489   2.395
 3215SOL    HW1 9701   0.371   0.506   2.439
 3215SOL    HW2 9702   0.235   0.567   2.410
 3216SOL     OW 9703   4.951   4.383   4.436
 3216SOL    HW1 9704   0.005   4.305   4.389
 3216SOL    HW2 9705   4.889   4.425   4.376
 3217SOL     OW 9706   4.845   0.035   1.913
 3217SOL    HW1 9707   4.839   0.083   1.830
 3217SOL    HW2 9708   4.937   0.043   1.939
 3218SOL     OW 9709   0.332   3.472   3.955
 3218SOL    HW1 9710   0.424   3.497   3.971
 3218SOL    HW2 9711   0.336   3.380   3.932
 3219SOL     OW 9712   0.509   4.863   4.759
 3219SOL    HW1 9713   0.433   4.808   4.777
 3219SOL    HW2 9714   0.517   4.862   4.663
 3220SOL     OW 9715   4.758   3.775   0.300
 3220SOL    HW1 9716   4.712   3.843   0.349
 3220SOL    HW2 9717   4.732   3.790   0.209
 3221SOL     OW 9718   2.161   1.902   2.656
 3221SOL    HW1 9719   2.158   1.831   2.592
 3221SOL    HW2 9720   2.254   1.910   2.678
 3222SOL     OW 9721   2.524   1.390   0.860
 3222SOL    HW1 9722   2.429   1.398   0.852
 3222SOL    HW2 9723   2.550   1.336   0.785
 3223SOL     OW 9724   3.541   0.597   2.507
 3223SOL    HW1 9725   3.469   0.550   2.465
 3223SOL    HW2 9726   3.558   0.548   2.587
 3224SOL     OW 9727   1.257   4.422   3.201
 3224SOL    HW1 9728   1.312   4.493   3.169
 3224SOL    HW2 9729   1.176   4.429   3.150
 3225SOL     OW 9730   2.734   4.860   3.976
 3225SOL    HW1 9731   2.702   4.778   4.014
 3225SOL    HW2 9732   2.696   4.928   4.031
 3226SOL     OW 9733   2.533   3.025   3.946
 3226SOL    HW1 9734   2.551   3.050   3.855
 3226SOL    HW2 9735   2.616   3.036   3.991
 3227SOL     OW 9736   1.335   1.804   1.322
 3227SOL    HW1 9737   1.354   1.822   1.414
 3227SOL    HW2 9738   1.307   1.888   1.286
 3228SOL     OW 9739   1.947   4.671   0.274
 3228SOL    HW1 9740   1.910   4.757   0.295
 3228SOL    HW2 9741   2.026   4.665   0.327
 3229SOL     OW 9742   0.959   1.854   1.679
 3229SOL    HW1 9743   0.976   1.939   1.638
 3229SOL    HW2 9744   0.951   1.873   1.772
 3230SOL     OW 9745   1.261   3.250   3.008
 3230SOL    HW1 9746   1.214   3.306   2.946
 3230SOL    HW2 9747   1.286   3.308   3.080
 3231SOL     OW 9748   4.387   2.540   3.968
 3231SOL    HW1 9749   4.396   2.445   3.976
 3231SOL    HW2 9750   4.306   2.561   4.014
 3232SOL     OW 9751   0.715   1.993   2.097
 3232SOL    HW1 9752   0.742   2.084   2.111
 3232SOL    HW2 9753   0.620   1.993   2.111
 3233SOL     OW 9754   0.566   4.568   0.498
 3233SOL    HW1 9755   0.538   4.477   0.485
 3233SOL    HW2 9756   0.648   4.575   0.450
 3234SOL     OW 9757   4.133   2.061   2.482
 3234SOL    HW1 9758   4.127   2.097   2.394
 3234SOL    HW2 9759   4.159   1.970   2.468
 3235SOL     OW 9760   2.754   2.874   1.781
 3235SOL    HW1 9761   2.810   2.807   1.818
 3235SOL    HW2 9762   2.813   2.946   1.758
 3236SOL     OW 9763   1.787   2.116   4.286
 3236SOL    HW1 9764   1.818   2.026   4.277
 3236SOL    HW2 9765   1.705   2.109   4.334
 3237SOL     OW 9766   0.999   1.696   2.336
 3237SOL    HW1 9767   0.913   1.669   2.367
 3237SOL    HW2 9768   1.058   1.674   2.408
 3238SOL     OW 9769   2.218   1.264   0.980
 3238SOL    HW1 9770   2.217   1.318   0.901
 3238SOL    HW2 9771   2.201   1.175   0.949
 3239SOL     OW 9772   1.475   0.363   3.781
 3239SOL    HW1 9773   1.534   0.398   3.849
 3239SOL    HW2 9774   1.452   0.275   3.812
 3240SOL     OW 9775   3.973   1.065   1.122
 3240SOL    HW1 9776   3.904   1.111   1.171
 3240SOL    HW2 9777   4.004   0.997   1.182
 3241SOL     OW 9778   2.004   4.848   4.943
 3241SOL    HW1 9779   1.933   4.816   0.023
 3241SOL    HW2 9780   2.049   4.913   0.021
 3242SOL     OW 9781   4.404   1.306   2.481
 3242SOL    HW1 9782   4.468   1.240   2.508
 3242SOL    HW2 9783   4.344   1.313   2.556
 3243SOL     OW 9784   2.011   2.419   0.565
 3243SOL    HW1 9785   1.983   2.360   0.636
 3243SOL    HW2 9786   1.957   2.393   0.490
 3244SOL     OW 9787   3.135   3.469   0.065
 3244SOL    HW1 9788   3.049   3.494   0.031
 3244SOL    HW2 9789   3.163   3.545   0.116
 3245SOL     OW 9790   0.156   1.307   0.758
 3245SOL    HW1 9791   0.083   1.258   0.795
 3245SOL    HW2 9792   0.210   1.331   0.834
 3246SOL     OW 9793   0.343   4.797   1.293
 3246SOL    HW1 9794   0.401   4.795   1.217
 3246SOL    HW2 9795   0.279   4.727   1.277
 3247SOL     OW 9796   3.887   2.908   1.934
 3247SOL    HW1 9797   3.792   2.920   1.943
 3247SOL    HW2 9798   3.921   2.997   1.924
 3248SOL     OW 9799   2.528   3.528   1.284
 3248SOL    HW1 9800   2.528   3.502   1.192
 3248SOL    HW2 9801   2.460   3.474   1.324
 3249SOL     OW 9802   3.793   2.963   1.154
 3249SOL    HW1 9803   3.786   3.047   1.200
 3249SOL    HW2 9804   3.786   2.897   1.222
 3250SOL     OW 9805   0.117   1.955   4.101
 3250SOL    HW1 9806   0.163   2.020   4.154
 3250SOL    HW2 9807   0.122   1.874   4.153
 3251SOL     OW 9808   3.861   4.591   4.879
 3251SOL    HW1 9809   3.861   4.547   4.794
 3251SOL    HW2 9810   3.792   4.547   4.928
 3252SOL     OW 9811   2.300   3.989   0.220
 3252SOL    HW1 9812   2.283   3.940   0.139
 3252SOL    HW2 9813   2.233   4.057   0.222
 3253SOL     OW 9814   1.988   0.133   2.596
 3253SOL    HW1 9815   1.998   0.225   2.619
 3253SOL    HW2 9816   1.894   0.120   2.586
 3254SOL     OW 9817   3.111   4.230   4.940
 3254SOL    HW1 9818   3.075   4.165   0.024
 3254SOL    HW2 9819   3.175   4.278   0.017
 3255SOL     OW 9820   4.050   4.611   0.782
 3255SOL    HW1 9821   4.093   4.688   0.747
 3255SOL    HW2 9822   4.088   4.600   0.870
 3256SOL     OW 9823   2.696   2.862   4.866
 3256SOL    HW1 9824   2.602   2.848   4.872
 3256SOL    HW2 9825   2.733   2.774   4.860
 3257SOL     OW 9826   4.831   1.867   3.413
 3257SOL    HW1 9827   4.855   1.813   3.338
 3257SOL    HW2 9828   4.852   1.813   3.489
 3258SOL     OW 9829   3.402   3.729   1.380
 3258SOL    HW1 9830   3.338   3.657   1.377
 3258SOL    HW2 9831   3.407   3.753   1.472
 3259SOL     OW 9832   3.272   1.739   1.443
 3259SOL    HW1 9833   3.338   1.671   1.438
 3259SOL    HW2 9834   3.207   1.714   1.377
 3260SOL     OW 9835   0.447   3.624   1.604
 3260SOL    HW1 9836   0.510   3.696   1.608
 3260SOL    HW2 9837   0.499   3.547   1.583
 3261SOL     OW 9838   4.595   4.045   1.293
 3261SOL    HW1 9839   4.583   4.033   1.387
 3261SOL    HW2 9840   4.690   4.045   1.281
 3262SOL     OW 9841   3.479   4.539   1.455
 3262SOL    HW1 9842   3.567   4.564   1.428
 3262SOL    HW2 9843   3.468   4.578   1.541
 3263SOL     OW 9844   1.931   3.635   1.751
 3263SOL    HW1 9845   1.917   3.571   1.821
 3263SOL    HW2 9846   2.026   3.636   1.738
 3264SOL     OW 9847   2.716   2.030   4.783
 3264SOL    HW1 9848   2.776   2.084   4.835
 3264SOL    HW2 9849   2.749   2.039   4.693
 3265SOL     OW 9850   1.629   2.484   4.060
 3265SOL    HW1 9851   1.637   2.415   4.127
 3265SOL    HW2 9852   1.639   2.437   3.977
 3266SOL     OW 9853   1.775   1.166   0.276
 3266SOL    HW1 9854   1.717   1.109   0.226
 3266SOL    HW2 9855   1.758   1.254   0.242
 3267SOL     OW 9856   3.353   4.859   4.498
 3267SOL    HW1 9857   3.376   4.864   4.405
 3267SOL    HW2 9858   3.286   4.927   4.510
 3268SOL     OW 9859   1.281   0.515   4.633
 3268SOL    HW1 9860   1.288   0.482   4.543
 3268SOL    HW2 9861   1.210   0.579   4.629
 3269SOL     OW 9862   1.520   1.741   4.943
 3269SOL    HW1 9863   1.437   1.714   0.007
 3269SOL    HW2 9864   1.518   1.702   4.855
 3270SOL     OW 9865   4.901   2.501   2.913
 3270SOL    HW1 9866   4.963   2.554   2.963
 3270SOL    HW2 9867   4.931   2.508   2.822
 3271SOL     OW 9868   1.038   2.079   4.500
 3271SOL    HW1 9869   1.030   2.056   4.592
 3271SOL    HW2 9870   1.120   2.039   4.472
 3272SOL     OW 9871   2.847   1.287   0.358
 3272SOL    HW1 9872   2.853   1.203   0.312
 3272SOL    HW2 9873   2.777   1.334   0.312
 3273SOL     OW 9874   4.722   3.237   0.168
 3273SOL    HW1 9875   4.673   3.198   0.241
 3273SOL    HW2 9876   4.654   3.272   0.110
 3274SOL     OW 9877   0.331   0.531   1.963
 3274SOL    HW1 9878   0.265   0.485   2.014
 3274SOL    HW2 9879   0.281   0.592   1.909
 3275SOL     OW 9880   0.975   3.511   2.493
 3275SOL    HW1 9881   0.921   3.514   2.413
 3275SOL    HW2 9882   0.965   3.421   2.525
 3276SOL     OW 9883   4.598   2.648   2.564
 3276SOL    HW1 9884   4.533   2.709   2.528
 3276SOL    HW2 9885   4.557   2.562   2.553
 3277SOL     OW 9886   0.277   4.561   4.533
 3277SOL    HW1 9887   0.257   4.500   4.461
 3277SOL    HW2 9888   0.336   4.512   4.590
 3278SOL     OW 9889   2.644   4.890   2.750
 3278SOL    HW1 9890   2.591   4.952   2.701
 3278SOL    HW2 9891   2.652   4.928   2.838
 3279SOL     OW 9892   3.470   2.934   4.428
 3279SOL    HW1 9893   3.455   2.841   4.445
 3279SOL    HW2 9894   3.464   2.975   4.514
 3280SOL     OW 9895   3.242   3.457   1.095
 3280SOL    HW1 9896   3.310   3.390   1.104
 3280SOL    HW2 9897   3.219   3.480   1.185
 3281SOL     OW 9898   3.511   4.057   4.590
 3281SOL    HW1 9899   3.465   4.139   4.612
 3281SOL    HW2 9900   3.537   4.021   4.675
 3282SOL     OW 9901   1.008   3.525   1.027
 3282SOL    HW1 9902   1.031   3.456   0.965
 3282SOL    HW2 9903   0.932   3.569   0.987
 3283SOL     OW 9904   3.537   0.139   3.212
 3283SOL    HW1 9905   3.508   0.230   3.220
 3283SOL    HW2 9906   3.606   0.129   3.278
 3284SOL     OW 9907   1.131   3.354   0.846
 3284SOL    HW1 9908   1.080   3.285   0.805
 3284SOL    HW2 9909   1.203   3.308   0.890
 3285SOL     OW 9910   1.884   1.386   4.664
 3285SOL    HW1 9911   1.806   1.410   4.614
 3285SOL    HW2 9912   1.858   1.397   4.756
 3286SOL     OW 9913   2.676   0.340   1.828
 3286SOL    HW1 9914   2.616   0.323   1.901
 3286SOL    HW2 9915   2.663   0.433   1.808
 3287SOL     OW 9916   1.971   4.387   4.629
 3287SOL    HW1 9917   1.985   4.452   4.698
 3287SOL    HW2 9918   1.923   4.316   4.672
 3288SOL     OW 9919   4.034   1.445   4.591
 3288SOL    HW1 9920   3.987   1.466   4.510
 3288SOL    HW2 9921   3.972   1.392   4.641
 3289SOL     OW 9922   3.751   4.172   0.492
 3289SOL    HW1 9923   3.779   4.233   0.424
 3289SOL    HW2 9924   3.813   4.099   0.486
 3290SOL     OW 9925   3.268   3.067   0.005
 3290SOL    HW1 9926   3.175   3.072   4.959
 3290SOL    HW2 9927   3.300   3.157   4.972
 3291SOL     OW 9928   1.447   1.091   2.511
 3291SOL    HW1 9929   1.459   1.048   2.426
 3291SOL    HW2 9930   1.453   1.020   2.575
 3292SOL     OW 9931   1.892   0.655   3.573
 3292SOL    HW1 9932   1.853   0.716   3.636
 3292SOL    HW2 9933   1.818   0.606   3.538
 3293SOL     OW 9934   3.578   2.761   1.304
 3293SOL    HW1 9935   3.654   2.703   1.309
 3293SOL    HW2 9936   3.517   2.727   1.369
 3294SOL     OW 9937   3.541   2.281   2.378
 3294SOL    HW1 9938   3.573   2.287   2.287
 3294SOL    HW2 9939   3.449   2.256   2.370
 3295SOL     OW 9940   2.676   4.873   3.065
 3295SOL    HW1 9941   2.588   4.903   3.089
 3295SOL    HW2 9942   2.735   4.922   3.122
 3296SOL     OW 9943   3.770   3.546   1.813
 3296SOL    HW1 9944   3.808   3.601   1.882
 3296SOL    HW2 9945   3.819   3.464   1.818
 3297SOL     OW 9946   2.271   1.435   0.761
 3297SOL    HW1 9947   2.195   1.415   0.705
 3297SOL    HW2 9948   2.297   1.523   0.735
 3298SOL     OW 9949   2.188   1.832   0.370
 3298SOL    HW1 9950   2.152   1.844   0.282
 3298SOL    HW2 9951   2.166   1.741   0.391
 3299SOL     OW 9952   2.114   2.645   2.558
 3299SOL    HW1 9953   2.105   2.603   2.643
 3299SOL    HW2 9954   2.153   2.731   2.577
 3300SOL     OW 9955   3.519   4.860   2.174
 3300SOL    HW1 9956   3.585   4.918   2.211
 3300SOL    HW2 9957   3.560   4.824   2.095
 3301SOL     OW 9958   2.508   1.075   3.585
 3301SOL    HW1 9959   2.526   0.992   3.542
 3301SOL    HW2 9960   2.583   1.131   3.564
 3302SOL     OW 9961   4.792   3.209   2.406
 3302SOL    HW1 9962   4.854   3.271   2.367
 3302SOL    HW2 9963   4.710   3.257   2.410
 3303SOL     OW 9964   0.497   2.151   4.309
 3303SOL    HW1 9965   0.409   2.112   4.314
 3303SOL    HW2 9966   0.515   2.181   4.398
 3304SOL     OW 9967   2.846   1.961   4.196
 3304SOL    HW1 9968   2.846   2.055   4.177
 3304SOL    HW2 9969   2.938   1.935   4.190
 3305SOL     OW 9970   0.805   3.108   4.295
 3305SOL    HW1 9971   0.783   3.076   4.382
 3305SOL    HW2 9972   0.900   3.119   4.297
 3306SOL     OW 9973   3.126   1.249   0.106
 3306SOL    HW1 9974   3.042   1.209   0.129
 3306SOL    HW2 9975   3.190   1.205   0.164
 3307SOL     OW 9976   2.964   4.542   1.212
 3307SOL    HW1 9977   2.928   4.547   1.124
 3307SOL    HW2 9978   2.891   4.512   1.266
 3308SOL     OW 9979   4.684   4.883   2.309
 3308SOL    HW1 9980   4.705   4.919   2.396
 3308SOL    HW2 9981   4.661   4.960   2.257
 3309SOL     OW 9982   1.473   0.857   2.677
 3309SOL    HW1 9983   1.383   0.825   2.670
 3309SOL    HW2 9984   1.503   0.825   2.763
 3310SOL     OW 9985   3.608   3.153   0.788
 3310SOL    HW1 9986   3.646   3.184   0.871
 3310SOL    HW2 9987   3.684   3.124   0.737
 3311SOL     OW 9988   3.417   0.144   3.726
 3311SOL    HW1 9989   3.402   0.060   3.769
 3311SOL    HW2 9990   3.371   0.136   3.642
 3312SOL     OW 9991   0.301   3.514   4.656
 3312SOL    HW1 9992   0.321   3.554   4.571
 3312SOL    HW2 9993   0.230   3.567   4.692
 3313SOL     OW 9994   1.871   4.965   0.787
 3313SOL    HW1 9995   1.916   4.884   0.812
 3313SOL    HW2 9996   1.927   0.059   0.821
 3314SOL     OW 9997   1.680   1.384   2.798
 3314SOL    HW1 9998   1.729   1.307   2.829
 3314SOL    HW2 9999   1.601   1.348   2.759
 3315SOL     OW10000   1.800   3.118   1.827
 3315SOL    HW110001   1.726   3.070   1.789
 3315SOL    HW210002   1.810   3.194   1.770
 3316SOL     OW10003   3.464   0.214   0.233
 3316SOL    HW110004   3.438   0.168   0.313
 3316SOL    HW210005   3.508   0.147   0.180
 3317SOL     OW10006   2.670   3.834   0.296
 3317SOL    HW110007   2.756   3.818   0.257
 3317SOL    HW210008   2.658   3.762   0.357
 3318SOL     OW10009   4.642   0.614   3.063
 3318SOL    HW110010   4.664   0.699   3.025
 3318SOL    HW210011   4.715   0.557   3.038
 3319SOL     OW10012   0.371   4.972   3.088
 3319SOL    HW110013   0.368   4.934   3.000
 3319SOL    HW210014   0.393   4.898   3.145
 3320SOL     OW10015   4.089   4.282   3.602
 3320SOL    HW110016   4.052   4.233   3.675
 3320SOL    HW210017   4.184   4.278   3.616
 3321SOL     OW10018   3.736   1.747   1.685
 3321SOL    HW110019   3.657   1.722   1.734
 3321SOL    HW210020   3.704   1.771   1.598
 3322SOL     OW10021   0.464   0.684   3.383
 3322SOL    HW110022   0.450   0.595   3.415
 3322SOL    HW210023   0.399   0.695   3.314
 3323SOL     OW10024   0.990   1.688   4.949
 3323SOL    HW110025   0.943   1.692   0.056
 3323SOL    HW210026   0.939   1.744   4.890
 3324SOL     OW10027   1.932   3.341   0.757
 3324SOL    HW110028   1.884   3.397   0.818
 3324SOL    HW210029   2.010   3.391   0.735
 3325SOL     OW10030   0.293   2.431   4.419
 3325SOL    HW110031   0.203   2.397   4.413
 3325SOL    HW210032   0.309   2.473   4.335
 3326SOL     OW10033   0.811   3.677   1.783
 3326SOL    HW110034   0.735   3.713   1.738
 3326SOL    HW210035   0.886   3.710   1.733
 3327SOL     OW10036   2.400   0.213   3.944
 3327SOL    HW110037   2.385   0.308   3.949
 3327SOL    HW210038   2.315   0.178   3.917
 3328SOL     OW10039   3.594   4.781   1.931
 3328SOL    HW110040   3.658   4.733   1.879
 3328SOL    HW210041   3.513   4.777   1.880
 3329SOL     OW10042   4.799   0.153   4.358
 3329SOL    HW110043   4.841   0.197   4.431
 3329SOL    HW210044   4.870   0.136   4.296
 3330SOL     OW10045   0.788   3.399   2.725
 3330SOL    HW110046   0.866   3.427   2.773
 3330SOL    HW210047   0.821   3.335   2.662
 3331SOL     OW10048   4.536   1.158   2.110
 3331SOL    HW110049   4.464   1.199   2.158
 3331SOL    HW210050   4.581   1.231   2.067
 3332SOL     OW10051   0.004   4.889   2.925
 3332SOL    HW110052   4.904   4.947   2.916
 3332SOL    HW210053   0.079   4.949   2.931
 3333SOL     OW10054   0.749   2.384   4.308
 3333SOL    HW110055   0.819   2.447   4.324
 3333SOL    HW210056   0.769   2.347   4.222
 3334SOL     OW10057   1.001   2.714   0.403
 3334SOL    HW110058   0.907   2.700   0.394
 3334SOL    HW210059   1.014   2.804   0.373
 3335SOL     OW10060   1.676   2.885   2.131
 3335SOL    HW110061   1.699   2.794   2.114
 3335SOL    HW210062   1.654   2.888   2.224
 3336SOL     OW10063   4.788   2.435   1.775
 3336SOL    HW110064   4.829   2.458   1.858
 3336SOL    HW210065   4.855   2.452   1.709
 3337SOL     OW10066   1.836   1.941   2.017
 3337SOL    HW110067   1.790   1.868   1.976
 3337SOL    HW210068   1.843   2.007   1.948
 3338SOL     OW10069   3.095   4.146   3.671
 3338SOL    HW110070   3.052   4.096   3.741
 3338SOL    HW210071   3.064   4.104   3.591
 3339SOL     OW10072   0.084   0.889   0.063
 3339SOL    HW110073   4.974   0.875   0.024
 3339SOL    HW210074   0.080   0.846   0.148
 3340SOL     OW10075   3.465   1.193   1.797
 3340SOL    HW110076   3.423   1.133   1.859
 3340SOL    HW210077   3.469   1.143   1.715
 3341SOL     OW10078   3.020   2.937   2.471
 3341SOL    HW110079   2.952   3.000   2.495
 3341SOL    HW210080   3.074   2.984   2.407
 3342SOL     OW10081   2.388   3.995   4.291
 3342SOL    HW110082   2.406   4.061   4.358
 3342SOL    HW210083   2.338   3.927   4.337
 3343SOL     OW10084   2.327   3.325   0.784
 3343SOL    HW110085   2.390   3.362   0.722
 3343SOL    HW210086   2.248   3.379   0.773
 3344SOL     OW10087   3.292   3.893   2.036
 3344SOL    HW110088   3.321   3.984   2.036
 3344SOL    HW210089   3.240   3.884   1.956
 3345SOL     OW10090   0.451   3.553   3.272
 3345SOL    HW110091   0.493   3.488   3.216
 3345SOL    HW210092   0.398   3.606   3.212
 3346SOL     OW10093   0.286   1.159   3.362
 3346SOL    HW110094   0.360   1.098   3.364
 3346SOL    HW210095   0.290   1.198   3.274
 3347SOL     OW10096   1.163   0.759   3.134
 3347SOL    HW110097   1.239   0.814   3.154
 3347SOL    HW210098   1.134   0.789   3.048
 3348SOL     OW10099   0.260   3.936   4.085
 3348SOL    HW110100   0.320   3.894   4.146
 3348SOL    HW210101   0.173   3.919   4.121
 3349SOL     OW10102   1.411   3.501   3.763
 3349SOL    HW110103   1.492   3.508   3.712
 3349SOL    HW210104   1.440   3.503   3.854
 3350SOL     OW10105   3.722   1.363   0.031
 3350SOL    HW110106   3.632   1.336   0.011
 3350SOL    HW210107   3.714   1.413   0.112
 3351SOL     OW10108   2.963   0.383   3.532
 3351SOL    HW110109   2.903   0.314   3.561
 3351SOL    HW210110   3.010   0.345   3.458
 3352SOL     OW10111   4.383   1.260   3.115
 3352SOL    HW110112   4.303   1.312   3.119
 3352SOL    HW210113   4.453   1.325   3.106
 3353SOL     OW10114   2.058   0.366   4.760
 3353SOL    HW110115   1.996   0.319   4.816
 3353SOL    HW210116   2.003   0.421   4.704
 3354SOL     OW10117   0.729   3.816   4.647
 3354SOL    HW110118   0.671   3.846   4.577
 3354SOL    HW210119   0.744   3.724   4.628
 3355SOL     OW10120   1.746   4.739   1.514
 3355SOL    HW110121   1.672   4.791   1.484
 3355SOL    HW210122   1.759   4.765   1.605
 3356SOL     OW10123   3.715   3.754   2.435
 3356SOL    HW110124   3.698   3.686   2.501
 3356SOL    HW210125   3.631   3.768   2.392
 3357SOL     OW10126   3.043   0.585   2.900
 3357SOL    HW110127   3.041   0.654   2.834
 3357SOL    HW210128   2.997   0.622   2.975
 3358SOL     OW10129   2.906   2.777   2.762
 3358SOL    HW110130   2.976   2.767   2.697
 3358SOL    HW210131   2.938   2.845   2.821
 3359SOL     OW10132   4.319   0.976   1.793
 3359SOL    HW110133   4.340   1.059   1.835
 3359SOL    HW210134   4.227   0.983   1.768
 3360SOL     OW10135   4.117   4.843   0.593
 3360SOL    HW110136   4.208   4.853   0.566
 3360SOL    HW210137   4.084   4.933   0.599
 3361SOL     OW10138   2.806   0.424   0.146
 3361SOL    HW110139   2.882   0.365   0.150
 3361SOL    HW210140   2.765   0.404   0.062
 3362SOL     OW10141   1.399   0.889   4.294
 3362SOL    HW110142   1.355   0.807   4.272
 3362SOL    HW210143   1.491   0.874   4.271
 3363SOL     OW10144   4.586   0.947   1.034
 3363SOL    HW110145   4.576   0.852   1.045
 3363SOL    HW210146   4.508   0.974   0.987
 3364SOL     OW10147   4.261   4.113   4.577
 3364SOL    HW110148   4.352   4.119   4.550
 3364SOL    HW210149   4.228   4.035   4.533
 3365SOL     OW10150   2.660   3.607   0.446
 3365SOL    HW110151   2.638   3.524   0.404
 3365SOL    HW210152   2.751   3.598   0.473
 3366SOL     OW10153   0.483   2.934   3.639
 3366SOL    HW110154   0.403   2.901   3.680
 3366SOL    HW210155   0.547   2.864   3.650
 3367SOL     OW10156   2.884   3.184   4.540
 3367SOL    HW110157   2.889   3.228   4.455
 3367SOL    HW210158   2.956   3.121   4.539
 3368SOL     OW10159   2.052   2.339   3.989
 3368SOL    HW110160   2.136   2.301   3.961
 3368SOL    HW210161   2.074   2.426   4.022
 3369SOL     OW10162   0.029   2.697   4.146
 3369SOL    HW110163   0.109   2.688   4.196
 3369SOL    HW210164   4.935   2.675   4.207
 3370SOL     OW10165   2.553   2.017   0.108
 3370SOL    HW110166   2.602   2.094   0.081
 3370SOL    HW210167   2.620   1.954   0.135
 3371SOL     OW10168   4.373   2.585   0.929
 3371SOL    HW110169   4.393   2.569   0.837
 3371SOL    HW210170   4.280   2.565   0.938
 3372SOL     OW10171   3.248   1.611   0.787
 3372SOL    HW110172   3.205   1.697   0.786
 3372SOL    HW210173   3.341   1.631   0.793
 3373SOL     OW10174   3.942   4.416   4.418
 3373SOL    HW110175   3.892   4.357   4.363
 3373SOL    HW210176   3.878   4.477   4.454
 3374SOL     OW10177   0.362   3.146   2.841
 3374SOL    HW110178   0.317   3.170   2.923
 3374SOL    HW210179   0.453   3.173   2.855
 3375SOL     OW10180   2.617   0.955   1.367
 3375SOL    HW110181   2.665   0.885   1.410
 3375SOL    HW210182   2.581   0.914   1.288
 3376SOL     OW10183   2.019   3.161   0.373
 3376SOL    HW110184   2.069   3.121   0.302
 3376SOL    HW210185   2.068   3.139   0.452
 3377SOL     OW10186   4.820   4.563   4.838
 3377SOL    HW110187   4.847   4.652   4.860
 3377SOL    HW210188   4.728   4.571   4.814
 3378SOL     OW10189   1.082   1.582   0.690
 3378SOL    HW110190   1.085   1.631   0.773
 3378SOL    HW210191   1.153   1.619   0.638
 3379SOL     OW10192   2.232   1.605   4.781
 3379SOL    HW110193   2.229   1.603   4.685
 3379SOL    HW210194   2.324   1.597   4.803
 3380SOL     OW10195   1.694   3.201   4.610
 3380SOL    HW110196   1.623   3.138   4.601
 3380SOL    HW210197   1.744   3.193   4.528
 3381SOL     OW10198   3.596   2.112   1.536
 3381SOL    HW110199   3.587   2.147   1.447
 3381SOL    HW210200   3.662   2.043   1.528
 3382SOL     OW10201   1.293   2.087   2.937
 3382SOL    HW110202   1.201   2.073   2.958
 3382SOL    HW210203   1.315   2.015   2.877
 3383SOL     OW10204   3.245   2.454   4.736
 3383SOL    HW110205   3.294   2.500   4.805
 3383SOL    HW210206   3.164   2.505   4.726
 3384SOL     OW10207   0.647   4.579   3.593
 3384SOL    HW110208   0.738   4.557   3.616
 3384SOL    HW210209   0.610   4.498   3.558
 3385SOL     OW10210   2.971   2.678   3.329
 3385SOL    HW110211   3.037   2.746   3.343
 3385SOL    HW210212   2.891   2.715   3.367
 3386SOL     OW10213   3.151   4.574   4.719
 3386SOL    HW110214   3.149   4.636   4.646
 3386SOL    HW210215   3.091   4.504   4.693
 3387SOL     OW10216   3.823   0.342   3.239
 3387SOL    HW110217   3.738   0.372   3.206
 3387SOL    HW210218   3.886   0.371   3.174
 3388SOL     OW10219   4.621   4.571   0.440
 3388SOL    HW110220   4.611   4.590   0.534
 3388SOL    HW210221   4.675   4.492   0.437
 3389SOL     OW10222   2.045   2.914   4.337
 3389SOL    HW110223   2.042   2.820   4.359
 3389SOL    HW210224   2.136   2.930   4.313
 3390SOL     OW10225   2.205   2.926   1.543
 3390SOL    HW110226   2.109   2.926   1.544
 3390SOL    HW210227   2.231   2.944   1.633
 3391SOL     OW10228   2.962   2.581   1.873
 3391SOL    HW110229   3.020   2.510   1.845
 3391SOL    HW210230   2.999   2.659   1.833
 3392SOL     OW10231   1.736   2.585   0.157
 3392SOL    HW110232   1.814   2.534   0.137
 3392SOL    HW210233   1.769   2.665   0.197
 3393SOL     OW10234   4.795   2.946   4.604
 3393SOL    HW110235   4.879   2.928   4.647
 3393SOL    HW210236   4.731   2.942   4.675
 3394SOL     OW10237   3.585   2.039   3.845
 3394SOL    HW110238   3.553   1.986   3.772
 3394SOL    HW210239   3.655   1.985   3.884
 3395SOL     OW10240   1.422   3.668   0.150
 3395SOL    HW110241   1.470   3.697   0.228
 3395SOL    HW210242   1.458   3.581   0.130
 3396SOL     OW10243   3.918   1.279   2.280
 3396SOL    HW110244   3.950   1.254   2.193
 3396SOL    HW210245   3.996   1.277   2.335
 3397SOL     OW10246   0.108   2.046   0.931
 3397SOL    HW110247   0.089   2.022   1.022
 3397SOL    HW210248   0.185   1.994   0.908
 3398SOL     OW10249   0.275   1.927   4.893
 3398SOL    HW110250   0.352   1.878   4.863
 3398SOL    HW210251   0.269   2.001   4.833
 3399SOL     OW10252   2.640   4.847   4.975
 3399SOL    HW110253   2.593   4.887   4.902
 3399SOL    HW210254   2.596   4.763   0.012
 3400SOL     OW10255   3.235   0.722   2.338
 3400SOL    HW110256   3.264   0.743   2.426
 3400SOL    HW210257   3.284   0.643   2.314
 3401SOL     OW10258   2.694   0.111   1.463
 3401SOL    HW110259   2.655   0.104   1.376
 3401SOL    HW210260   2.787   0.091   1.449
 3402SOL     OW10261   1.228   4.545   4.442
 3402SOL    HW110262   1.197   4.455   4.442
 3402SOL    HW210263   1.150   4.598   4.428
 3403SOL     OW10264   3.222   3.540   1.362
 3403SOL    HW110265   3.240   3.459   1.410
 3403SOL    HW210266   3.135   3.567   1.393
 3404SOL     OW10267   4.956   3.485   4.586
 3404SOL    HW110268   0.028   3.535   4.520
 3404SOL    HW210269   4.972   3.532   4.668
 3405SOL     OW10270   1.528   4.695   1.853
 3405SOL    HW110271   1.477   4.767   1.891
 3405SOL    HW210272   1.619   4.722   1.862
 3406SOL     OW10273   4.702   1.521   2.674
 3406SOL    HW110274   4.767   1.476   2.619
 3406SOL    HW210275   4.750   1.597   2.708
 3407SOL     OW10276   3.678   2.297   0.666
 3407SOL    HW110277   3.601   2.304   0.722
 3407SOL    HW210278   3.656   2.227   0.604
 3408SOL     OW10279   2.233   3.822   2.413
 3408SOL    HW110280   2.310   3.802   2.360
 3408SOL    HW210281   2.268   3.847   2.498
 3409SOL     OW10282   4.122   3.090   3.048
 3409SOL    HW110283   4.097   3.050   3.131
 3409SOL    HW210284   4.192   3.034   3.014
 3410SOL     OW10285   1.413   4.489   4.119
 3410SOL    HW110286   1.402   4.398   4.147
 3410SOL    HW210287   1.446   4.534   4.197
 3411SOL     OW10288   0.104   2.620   3.085
 3411SOL    HW110289   0.076   2.625   3.177
 3411SOL    HW210290   0.188   2.574   3.088
 3412SOL     OW10291   4.889   4.282   0.315
 3412SOL    HW110292   4.835   4.359   0.297
 3412SOL    HW210293   4.847   4.241   0.390
 3413SOL     OW10294   3.968   4.537   1.366
 3413SOL    HW110295   3.983   4.486   1.446
 3413SOL    HW210296   3.987   4.476   1.295
 3414SOL     OW10297   2.584   1.176   0.034
 3414SOL    HW110298   2.662   1.229   0.016
 3414SOL    HW210299   2.565   1.191   0.126
 3415SOL     OW10300   2.485   2.122   1.951
 3415SOL    HW110301   2.505   2.127   1.857
 3415SOL    HW210302   2.404   2.172   1.961
 3416SOL     OW10303   1.684   3.160   1.181
 3416SOL    HW110304   1.662   3.078   1.137
 3416SOL    HW210305   1.663   3.228   1.117
 3417SOL     OW10306   3.487   0.562   2.026
 3417SOL    HW110307   3.425   0.622   1.984
 3417SOL    HW210308   3.546   0.536   1.955
 3418SOL     OW10309   4.866   2.350   0.235
 3418SOL    HW110310   4.797   2.322   0.296
 3418SOL    HW210311   4.917   2.271   0.219
 3419SOL     OW10312   1.009   2.922   2.440
 3419SOL    HW110313   0.935   2.876   2.401
 3419SOL    HW210314   1.042   2.980   2.371
 3420SOL     OW10315   1.998   1.092   4.298
 3420SOL    HW110316   2.051   1.123   4.371
 3420SOL    HW210317   1.987   1.169   4.242
 3421SOL     OW10318   0.997   3.844   4.897
 3421SOL    HW110319   0.971   3.832   0.012
 3421SOL    HW210320   0.944   3.916   4.865
 3422SOL     OW10321   3.656   2.972   3.537
 3422SOL    HW110322   3.582   2.933   3.490
 3422SOL    HW210323   3.712   3.007   3.469
 3423SOL     OW10324   2.577   2.233   3.665
 3423SOL    HW110325   2.637   2.162   3.640
 3423SOL    HW210326   2.563   2.282   3.584
 3424SOL     OW10327   0.685   4.252   0.653
 3424SOL    HW110328   0.710   4.180   0.712
 3424SOL    HW210329   0.599   4.226   0.620
 3425SOL     OW10330   1.524   4.431   3.647
 3425SOL    HW110331   1.517   4.392   3.559
 3425SOL    HW210332   1.459   4.501   3.647
 3426SOL     OW10333   4.146   4.598   1.052
 3426SOL    HW110334   4.126   4.671   1.111
 3426SOL    HW210335   4.136   4.520   1.106
 3427SOL     OW10336   1.601   4.431   1.462
 3427SOL    HW110337   1.638   4.436   1.374
 3427SOL    HW210338   1.566   4.519   1.478
 3428SOL     OW10339   1.786   4.194   4.659
 3428SOL    HW110340   1.721   4.133   4.622
 3428SOL    HW210341   1.738   4.276   4.671
 3429SOL     OW10342   1.490   1.114   4.490
 3429SOL    HW110343   1.483   1.156   4.404
 3429SOL    HW210344   1.537   1.033   4.474
 3430SOL     OW10345   4.725   0.894   3.371
 3430SOL    HW110346   4.788   0.944   3.319
 3430SOL    HW210347   4.672   0.848   3.306
 3431SOL     OW10348   1.365   0.883   0.005
 3431SOL    HW110349   1.340   0.802   4.938
 3431SOL    HW210350   1.329   0.952   4.926
 3432SOL     OW10351   1.547   4.238   0.524
 3432SOL    HW110352   1.495   4.236   0.444
 3432SOL    HW210353   1.515   4.164   0.576
 3433SOL     OW10354   3.172   1.561   2.098
 3433SOL    HW110355   3.189   1.633   2.037
 3433SOL    HW210356   3.078   1.548   2.093
 3434SOL     OW10357   4.704   2.335   3.702
 3434SOL    HW110358   4.783   2.350   3.753
 3434SOL    HW210359   4.680   2.421   3.669
 3435SOL     OW10360   2.236   0.157   2.184
 3435SOL    HW110361   2.213   0.096   2.254
 3435SOL    HW210362   2.152   0.198   2.159
 3436SOL     OW10363   4.788   2.544   1.178
 3436SOL    HW110364   4.730   2.599   1.126
 3436SOL    HW210365   4.733   2.472   1.208
 3437SOL     OW10366   1.626   2.004   2.349
 3437SOL    HW110367   1.536   2.012   2.381
 3437SOL    HW210368   1.617   1.983   2.256
 3438SOL     OW10369   1.754   0.926   1.920
 3438SOL    HW110370   1.820   0.993   1.941
 3438SOL    HW210371   1.677   0.976   1.893
 3439SOL     OW10372   1.482   3.619   0.526
 3439SOL    HW110373   1.469   3.698   0.473
 3439SOL    HW210374   1.397   3.604   0.568
 3440SOL     OW10375   2.602   3.171   2.028
 3440SOL    HW110376   2.511   3.196   2.048
 3440SOL    HW210377   2.599   3.077   2.015
 3441SOL     OW10378   1.107   2.897   0.705
 3441SOL    HW110379   1.133   2.948   0.628
 3441SOL    HW210380   1.016   2.922   0.721
 3442SOL     OW10381   1.754   0.989   2.698
 3442SOL    HW110382   1.798   0.995   2.613
 3442SOL    HW210383   1.665   0.960   2.677
 3443SOL     OW10384   3.625   2.271   4.538
 3443SOL    HW110385   3.537   2.283   4.502
 3443SOL    HW210386   3.652   2.359   4.564
 3444SOL     OW10387   1.582   4.031   1.528
 3444SOL    HW110388   1.624   3.950   1.499
 3444SOL    HW210389   1.491   4.023   1.499
 3445SOL     OW10390   3.268   4.907   1.661
 3445SOL    HW110391   3.233   0.020   1.664
 3445SOL    HW210392   3.192   4.851   1.677
 3446SOL     OW10393   1.750   4.880   1.127
 3446SOL    HW110394   1.753   4.974   1.114
 3446SOL    HW210395   1.734   4.843   1.040
 3447SOL     OW10396   0.981   3.667   2.255
 3447SOL    HW110397   0.941   3.734   2.311
 3447SOL    HW210398   1.068   3.700   2.235
 3448SOL     OW10399   0.170   3.214   0.369
 3448SOL    HW110400   0.174   3.141   0.306
 3448SOL    HW210401   0.098   3.269   0.337
 3449SOL     OW10402   1.776   2.677   3.715
 3449SOL    HW110403   1.849   2.635   3.669
 3449SOL    HW210404   1.710   2.608   3.723
 3450SOL     OW10405   0.256   3.367   1.385
 3450SOL    HW110406   0.212   3.290   1.349
 3450SOL    HW210407   0.349   3.345   1.384
 3451SOL     OW10408   0.884   2.696   2.910
 3451SOL    HW110409   0.947   2.768   2.914
 3451SOL    HW210410   0.838   2.699   2.994
 3452SOL     OW10411   0.844   2.258   2.019
 3452SOL    HW110412   0.884   2.207   1.948
 3452SOL    HW210413   0.794   2.327   1.975
 3453SOL     OW10414   0.745   1.902   3.842
 3453SOL    HW110415   0.827   1.943   3.868
 3453SOL    HW210416   0.736   1.827   3.900
 3454SOL     OW10417   1.128   2.361   4.510
 3454SOL    HW110418   1.124   2.266   4.519
 3454SOL    HW210419   1.216   2.384   4.538
 3455SOL     OW10420   3.157   4.592   3.794
 3455SOL    HW110421   3.086   4.586   3.858
 3455SOL    HW210422   3.130   4.533   3.723
 3456SOL     OW10423   3.544   4.794   4.257
 3456SOL    HW110424   3.539   4.776   4.351
 3456SOL    HW210425   3.500   4.719   4.216
 3457SOL     OW10426   1.239   3.831   2.216
 3457SOL    HW110427   1.268   3.777   2.143
 3457SOL    HW210428   1.293   3.910   2.211
 3458SOL     OW10429   1.410   3.694   4.401
 3458SOL    HW110430   1.450   3.718   4.484
 3458SOL    HW210431   1.316   3.707   4.415
 3459SOL     OW10432   1.578   4.851   0.424
 3459SOL    HW110433   1.547   4.777   0.371
 3459SOL    HW210434   1.673   4.851   0.413
 3460SOL     OW10435   1.066   2.102   4.792
 3460SOL    HW110436   1.030   2.188   4.816
 3460SOL    HW210437   1.161   2.116   4.790
 3461SOL     OW10438   2.439   3.689   4.007
 3461SOL    HW110439   2.478   3.615   3.961
 3461SOL    HW210440   2.480   3.766   3.968
 3462SOL     OW10441   0.183   2.151   2.633
 3462SOL    HW110442   0.112   2.086   2.642
 3462SOL    HW210443   0.200   2.154   2.539
 3463SOL     OW10444   1.820   2.560   4.314
 3463SOL    HW110445   1.788   2.563   4.224
 3463SOL    HW210446   1.868   2.477   4.319
 3464SOL     OW10447   2.103   0.620   0.121
 3464SOL    HW110448   2.124   0.688   0.056
 3464SOL    HW210449   2.149   0.647   0.200
 3465SOL     OW10450   3.546   0.228   0.696
 3465SOL    HW110451   3.537   0.163   0.765
 3465SOL    HW210452   3.532   0.312   0.740
 3466SOL     OW10453   2.143   0.270   3.724
 3466SOL    HW110454   2.115   0.280   3.633
 3466SOL    HW210455   2.231   0.307   3.727
 3467SOL     OW10456   2.994   0.674   2.187
 3467SOL    HW110457   2.971   0.587   2.218
 3467SOL    HW210458   3.081   0.690   2.222
 3468SOL     OW10459   1.193   0.706   1.408
 3468SOL    HW110460   1.188   0.618   1.446
 3468SOL    HW210461   1.128   0.756   1.457
 3469SOL     OW10462   3.441   2.442   0.333
 3469SOL    HW110463   3.536   2.434   0.346
 3469SOL    HW210464   3.412   2.503   0.402
 3470SOL     OW10465   4.320   2.279   4.411
 3470SOL    HW110466   4.283   2.357   4.451
 3470SOL    HW210467   4.278   2.206   4.456
 3471SOL     OW10468   0.972   1.188   1.857
 3471SOL    HW110469   0.910   1.251   1.822
 3471SOL    HW210470   1.023   1.237   1.922
 3472SOL     OW10471   0.714   0.495   2.606
 3472SOL    HW110472   0.732   0.515   2.698
 3472SOL    HW210473   0.765   0.415   2.589
 3473SOL     OW10474   1.305   0.504   3.156
 3473SOL    HW110475   1.239   0.546   3.101
 3473SOL    HW210476   1.294   0.545   3.242
 3474SOL     OW10477   2.162   1.584   1.941
 3474SOL    HW110478   2.163   1.665   1.992
 3474SOL    HW210479   2.094   1.598   1.875
 3475SOL     OW10480   1.439   0.816   1.514
 3475SOL    HW110481   1.498   0.740   1.513
 3475SOL    HW210482   1.362   0.788   1.464
 3476SOL     OW10483   1.932   0.159   4.891
 3476SOL    HW110484   1.847   0.177   4.931
 3476SOL    HW210485   1.933   0.064   4.877
 3477SOL     OW10486   4.352   0.063   2.102
 3477SOL    HW110487   4.389   0.100   2.022
 3477SOL    HW210488   4.319   4.954   2.075
 3478SOL     OW10489   3.452   2.307   0.816
 3478SOL    HW110490   3.397   2.355   0.753
 3478SOL    HW210491   3.394   2.289   0.890
 3479SOL     OW10492   1.101   3.905   3.487
 3479SOL    HW110493   1.179   3.856   3.514
 3479SOL    HW210494   1.043   3.839   3.449
 3480SOL     OW10495   0.462   3.006   0.123
 3480SOL    HW110496   0.411   2.950   0.064
 3480SOL    HW210497   0.445   2.971   0.210
 3481SOL     OW10498   3.503   4.936   1.516
 3481SOL    HW110499   3.426   4.957   1.570
 3481SOL    HW210500   3.560   4.887   1.575
 3482SOL     OW10501   0.940   0.486   1.236
 3482SOL    HW110502   0.874   0.544   1.273
 3482SOL    HW210503   1.015   0.494   1.294
 3483SOL     OW10504   0.535   2.999   2.371
 3483SOL    HW110505   0.478   2.936   2.327
 3483SOL    HW210506   0.500   3.005   2.460
 3484SOL     OW10507   3.570   2.928   2.864
 3484SOL    HW110508   3.610   3.010   2.836
 3484SOL    HW210509   3.640   2.863   2.858
 3485SOL     OW10510   0.163   3.062   0.845
 3485SOL    HW110511   0.188   3.007   0.770
 3485SOL    HW210512   0.221   3.138   0.840
 3486SOL     OW10513   4.880   3.029   0.999
 3486SOL    HW110514   4.819   2.986   0.939
 3486SOL    HW210515   4.964   3.026   0.953
 3487SOL     OW10516   4.215   1.023   2.533
 3487SOL    HW110517   4.285   1.040   2.596
 3487SOL    HW210518   4.179   1.109   2.513
 3488SOL     OW10519   0.309   1.073   0.110
 3488SOL    HW110520   0.250   1.005   0.142
 3488SOL    HW210521   0.396   1.035   0.119
 3489SOL     OW10522   0.420   1.500   4.186
 3489SOL    HW110523   0.439   1.433   4.121
 3489SOL    HW210524   0.325   1.505   4.188
 3490SOL     OW10525   3.000   1.991   0.521
 3490SOL    HW110526   2.972   1.911   0.566
 3490SOL    HW210527   2.964   1.983   0.433
 3491SOL     OW10528   0.453   2.497   2.150
 3491SOL    HW110529   0.452   2.530   2.239
 3491SOL    HW210530   0.537   2.527   2.115
 3492SOL     OW10531   1.603   2.172   0.128
 3492SOL    HW110532   1.590   2.220   0.210
 3492SOL    HW210533   1.523   2.121   0.117
 3493SOL     OW10534   0.670   4.285   3.171
 3493SOL    HW110535   0.720   4.282   3.090
 3493SOL    HW210536   0.639   4.195   3.184
 3494SOL     OW10537   4.265   0.649   4.260
 3494SOL    HW110538   4.342   0.662   4.205
 3494SOL    HW210539   4.235   0.561   4.238
 3495SOL     OW10540   1.639   1.623   4.391
 3495SOL    HW110541   1.635   1.536   4.430
 3495SOL    HW210542   1.644   1.607   4.296
 3496SOL     OW10543   1.328   2.163   0.807
 3496SOL    HW110544   1.309   2.253   0.781
 3496SOL    HW210545   1.395   2.134   0.745
 3497SOL     OW10546   1.433   4.662   1.597
 3497SOL    HW110547   1.449   4.747   1.556
 3497SOL    HW210548   1.465   4.672   1.686
 3498SOL     OW10549   1.255   2.429   0.692
 3498SOL    HW110550   1.238   2.387   0.607
 3498SOL    HW210551   1.209   2.513   0.686
 3499SOL     OW10552   4.232   1.251   4.670
 3499SOL    HW110553   4.162   1.217   4.725
 3499SOL    HW210554   4.196   1.330   4.631
 3500SOL     OW10555   0.201   2.126   4.702
 3500SOL    HW110556   0.125   2.134   4.646
 3500SOL    HW210557   0.189   2.193   4.769
 3501SOL     OW10558   1.327   0.412   1.944
 3501SOL    HW110559   1.361   0.390   2.030
 3501SOL    HW210560   1.238   0.377   1.943
 3502SOL     OW10561   1.479   1.179   0.552
 3502SOL    HW110562   1.499   1.153   0.462
 3502SOL    HW210563   1.399   1.132   0.573
 3503SOL     OW10564   2.451   2.364   0.780
 3503SOL    HW110565   2.493   2.448   0.799
 3503SOL    HW210566   2.366   2.388   0.743
 3504SOL     OW10567   0.149   1.332   4.798
 3504SOL    HW110568   0.055   1.322   4.778
 3504SOL    HW210569   0.181   1.391   4.730
 3505SOL     OW10570   1.796   4.008   1.861
 3505SOL    HW110571   1.728   4.068   1.892
 3505SOL    HW210572   1.861   4.008   1.930
 3506SOL     OW10573   2.582   3.225   1.532
 3506SOL    HW110574   2.674   3.198   1.532
 3506SOL    HW210575   2.554   3.216   1.441
 3507SOL     OW10576   0.963   1.177   2.927
 3507SOL    HW110577   0.941   1.194   3.018
 3507SOL    HW210578   0.944   1.260   2.882
 3508SOL     OW10579   3.765   0.275   2.023
 3508SOL    HW110580   3.679   0.301   2.055
 3508SOL    HW210581   3.802   0.222   2.093
 3509SOL     OW10582   0.830   4.902   2.298
 3509SOL    HW110583   0.850   4.878   2.207
 3509SOL    HW210584   0.744   4.865   2.314
 3510SOL     OW10585   3.571   1.777   4.887
 3510SOL    HW110586   3.526   1.861   4.891
 3510SOL    HW210587   3.502   1.712   4.901
 3511SOL     OW10588   3.489   4.168   3.139
 3511SOL    HW110589   3.478   4.089   3.192
 3511SOL    HW210590   3.448   4.146   3.055
 3512SOL     OW10591   1.765   4.534   4.809
 3512SOL    HW110592   1.825   4.576   4.747
 3512SOL    HW210593   1.703   4.486   4.754
 3513SOL     OW10594   0.404   1.675   3.833
 3513SOL    HW110595   0.445   1.600   3.875
 3513SOL    HW210596   0.439   1.751   3.881
 3514SOL     OW10597   4.162   3.883   4.465
 3514SOL    HW110598   4.186   3.809   4.410
 3514SOL    HW210599   4.073   3.864   4.494
 3515SOL     OW10600   0.769   2.696   3.190
 3515SOL    HW110601   0.805   2.785   3.199
 3515SOL    HW210602   0.832   2.640   3.236
 3516SOL     OW10603   4.290   2.516   4.785
 3516SOL    HW110604   4.326   2.583   4.842
 3516SOL    HW210605   4.274   2.561   4.702
 3517SOL     OW10606   3.362   3.798   2.435
 3517SOL    HW110607   3.280   3.835   2.402
 3517SOL    HW210608   3.418   3.874   2.450
 3518SOL     OW10609   0.022   0.127   3.282
 3518SOL    HW110610   0.007   0.038   3.252
 3518SOL    HW210611   4.937   0.181   3.231
 3519SOL     OW10612   3.222   4.450   2.821
 3519SOL    HW110613   3.199   4.543   2.821
 3519SOL    HW210614   3.310   4.447   2.857
 3520SOL     OW10615   4.050   3.366   1.485
 3520SOL    HW110616   4.118   3.381   1.420
 3520SOL    HW210617   3.988   3.307   1.442
 3521SOL     OW10618   4.418   0.844   2.384
 3521SOL    HW110619   4.395   0.752   2.390
 3521SOL    HW210620   4.360   0.887   2.447
 3522SOL     OW10621   2.602   0.272   3.406
 3522SOL    HW110622   2.633   0.362   3.414
 3522SOL    HW210623   2.659   0.221   3.463
 3523SOL     OW10624   3.025   0.241   3.907
 3523SOL    HW110625   2.974   0.320   3.893
 3523SOL    HW210626   2.991   0.204   3.988
 3524SOL     OW10627   1.530   3.349   0.546
 3524SOL    HW110628   1.595   3.314   0.485
 3524SOL    HW210629   1.527   3.443   0.526
 3525SOL     OW10630   4.405   2.168   3.354
 3525SOL    HW110631   4.475   2.104   3.341
 3525SOL    HW210632   4.413   2.194   3.445
 3526SOL     OW10633   2.088   2.179   0.179
 3526SOL    HW110634   2.155   2.120   0.146
 3526SOL    HW210635   2.134   2.239   0.238
 3527SOL     OW10636   4.384   3.677   3.023
 3527SOL    HW110637   4.363   3.590   3.057
 3527SOL    HW210638   4.322   3.690   2.950
 3528SOL     OW10639   0.952   4.888   0.141
 3528SOL    HW110640   1.046   4.867   0.146
 3528SOL    HW210641   0.934   4.935   0.222
 3529SOL     OW10642   1.250   3.723   3.935
 3529SOL    HW110643   1.180   3.760   3.989
 3529SOL    HW210644   1.304   3.673   3.996
 3530SOL     OW10645   2.387   2.827   4.871
 3530SOL    HW110646   2.316   2.775   4.909
 3530SOL    HW210647   2.366   2.834   4.778
 3531SOL     OW10648   1.447   4.224   4.474
 3531SOL    HW110649   1.354   4.211   4.489
 3531SOL    HW210650   1.458   4.216   4.379
 3532SOL     OW10651   2.805   2.567   1.189
 3532SOL    HW110652   2.747   2.638   1.161
 3532SOL    HW210653   2.884   2.578   1.137
 3533SOL     OW10654   3.722   0.199   1.765
 3533SOL    HW110655   3.633   0.233   1.754
 3533SOL    HW210656   3.745   0.222   1.855
 3534SOL     OW10657   3.032   2.142   4.833
 3534SOL    HW110658   2.956   2.187   4.870
 3534SOL    HW210659   3.040   2.179   4.745
 3535SOL     OW10660   3.262   1.956   2.123
 3535SOL    HW110661   3.272   1.892   2.053
 3535SOL    HW210662   3.169   1.954   2.145
 3536SOL     OW10663   1.277   1.714   0.954
 3536SOL    HW110664   1.305   1.677   1.037
 3536SOL    HW210665   1.192   1.755   0.973
 3537SOL     OW10666   1.822   2.053   2.677
 3537SOL    HW110667   1.886   2.040   2.746
 3537SOL    HW210668   1.868   2.102   2.610
 3538SOL     OW10669   1.695   0.498   4.856
 3538SOL    HW110670   1.757   0.501   4.783
 3538SOL    HW210671   1.654   0.412   4.848
 3539SOL     OW10672   4.610   0.165   1.087
 3539SOL    HW110673   4.599   0.234   1.021
 3539SOL    HW210674   4.521   0.138   1.109
 3540SOL     OW10675   2.502   0.516   4.968
 3540SOL    HW110676   2.412   0.482   4.963
 3540SOL    HW210677   2.557   0.438   4.963
 3541SOL     OW10678   1.844   3.231   4.852
 3541SOL    HW110679   1.799   3.214   4.769
 3541SOL    HW210680   1.795   3.182   4.917
 3542SOL     OW10681   4.866   1.479   4.421
 3542SOL    HW110682   4.865   1.543   4.492
 3542SOL    HW210683   4.928   1.514   4.358
 3543SOL     OW10684   2.038   0.814   1.612
 3543SOL    HW110685   1.962   0.811   1.554
 3543SOL    HW210686   2.008   0.772   1.692
 3544SOL     OW10687   0.434   4.119   0.658
 3544SOL    HW110688   0.384   4.037   0.666
 3544SOL    HW210689   0.376   4.186   0.694
 3545SOL     OW10690   3.735   1.425   0.726
 3545SOL    HW110691   3.793   1.446   0.800
 3545SOL    HW210692   3.785   1.362   0.674
 3546SOL     OW10693   2.640   3.978   0.736
 3546SOL    HW110694   2.577   4.008   0.802
 3546SOL    HW210695   2.724   4.013   0.766
 3547SOL     OW10696   2.900   3.624   2.793
 3547SOL    HW110697   2.823   3.587   2.836
 3547SOL    HW210698   2.903   3.715   2.823
 3548SOL     OW10699   2.005   3.462   3.262
 3548SOL    HW110700   2.069   3.469   3.333
 3548SOL    HW210701   2.035   3.388   3.210
 3549SOL     OW10702   4.617   2.204   0.450
 3549SOL    HW110703   4.539   2.182   0.500
 3549SOL    HW210704   4.680   2.135   0.472
 3550SOL     OW10705   0.908   0.640   0.279
 3550SOL    HW110706   0.942   0.551   0.278
 3550SOL    HW210707   0.964   0.687   0.340
 3551SOL     OW10708   3.530   3.711   0.209
 3551SOL    HW110709   3.575   3.789   0.240
 3551SOL    HW210710   3.542   3.712   0.114
 3552SOL     OW10711   2.912   3.733   3.588
 3552SOL    HW110712   2.986   3.684   3.549
 3552SOL    HW210713   2.892   3.801   3.524
 3553SOL     OW10714   0.489   1.110   0.596
 3553SOL    HW110715   0.575   1.146   0.620
 3553SOL    HW210716   0.510   1.038   0.536
 3554SOL     OW10717   3.665   2.722   4.087
 3554SOL    HW110718   3.629   2.652   4.141
 3554SOL    HW210719   3.652   2.801   4.139
 3555SOL     OW10720   3.024   0.878   2.816
 3555SOL    HW110721   3.038   0.932   2.737
 3555SOL    HW210722   2.929   0.877   2.826
 3556SOL     OW10723   0.394   4.368   1.236
 3556SOL    HW110724   0.486   4.361   1.262
 3556SOL    HW210725   0.345   4.356   1.317
 3557SOL     OW10726   3.634   0.327   2.270
 3557SOL    HW110727   3.549   0.328   2.312
 3557SOL    HW210728   3.664   0.418   2.273
 3558SOL     OW10729   2.501   0.455   2.016
 3558SOL    HW110730   2.442   0.529   2.000
 3558SOL    HW210731   2.468   0.415   2.096
 3559SOL     OW10732   1.295   2.893   4.391
 3559SOL    HW110733   1.283   2.815   4.445
 3559SOL    HW210734   1.377   2.877   4.344
 3560SOL     OW10735   4.353   4.189   1.273
 3560SOL    HW110736   4.392   4.114   1.228
 3560SOL    HW210737   4.339   4.158   1.362
 3561SOL     OW10738   4.210   0.599   2.825
 3561SOL    HW110739   4.272   0.669   2.848
 3561SOL    HW210740   4.193   0.554   2.908
 3562SOL     OW10741   3.573   0.833   2.636
 3562SOL    HW110742   3.572   0.761   2.573
 3562SOL    HW210743   3.531   0.906   2.590
 3563SOL     OW10744   1.496   2.114   3.384
 3563SOL    HW110745   1.580   2.159   3.375
 3563SOL    HW210746   1.501   2.041   3.323
 3564SOL     OW10747   1.716   2.556   3.190
 3564SOL    HW110748   1.781   2.615   3.153
 3564SOL    HW210749   1.766   2.482   3.223
 3565SOL     OW10750   1.919   2.945   2.023
 3565SOL    HW110751   1.898   2.994   1.943
 3565SOL    HW210752   1.836   2.940   2.070
 3566SOL     OW10753   1.155   2.737   2.168
 3566SOL    HW110754   1.117   2.739   2.080
 3566SOL    HW210755   1.209   2.658   2.168
 3567SOL     OW10756   1.313   3.770   3.603
 3567SOL    HW110757   1.293   3.711   3.531
 3567SOL    HW210758   1.305   3.716   3.682
 3568SOL     OW10759   3.771   4.475   3.945
 3568SOL    HW110760   3.742   4.417   3.875
 3568SOL    HW210761   3.699   4.474   4.008
 3569SOL     OW10762   3.378   1.370   3.905
 3569SOL    HW110763   3.384   1.321   3.987
 3569SOL    HW210764   3.389   1.303   3.837
 3570SOL     OW10765   2.186   2.291   2.836
 3570SOL    HW110766   2.231   2.297   2.751
 3570SOL    HW210767   2.145   2.205   2.835
 3571SOL     OW10768   2.580   2.581   0.252
 3571SOL    HW110769   2.559   2.570   0.344
 3571SOL    HW210770   2.565   2.674   0.235
 3572SOL     OW10771   1.537   4.836   0.077
 3572SOL    HW110772   1.600   4.766   0.093
 3572SOL    HW210773   1.476   4.830   0.151
 3573SOL     OW10774   0.509   0.216   3.696
 3573SOL    HW110775   0.541   0.170   3.774
 3573SOL    HW210776   0.417   0.189   3.689
 3574SOL     OW10777   3.512   4.385   0.284
 3574SOL    HW110778   3.580   4.399   0.217
 3574SOL    HW210779   3.495   4.472   0.320
 3575SOL     OW10780   0.184   4.272   4.863
 3575SOL    HW110781   0.202   4.232   4.948
 3575SOL    HW210782   0.180   4.366   4.881
 3576SOL     OW10783   2.082   0.434   1.525
 3576SOL    HW110784   2.045   0.480   1.450
 3576SOL    HW210785   2.015   0.441   1.593
 3577SOL     OW10786   1.992   0.242   2.127
 3577SOL    HW110787   1.944   0.197   2.197
 3577SOL    HW210788   1.938   0.230   2.049
 3578SOL     OW10789   0.292   4.375   0.834
 3578SOL    HW110790   0.358   4.439   0.862
 3578SOL    HW210791   0.325   4.291   0.867
 3579SOL     OW10792   2.684   4.631   3.467
 3579SOL    HW110793   2.620   4.642   3.397
 3579SOL    HW210794   2.670   4.705   3.525
 3580SOL     OW10795   3.046   4.223   1.257
 3580SOL    HW110796   2.965   4.221   1.205
 3580SOL    HW210797   3.034   4.298   1.316
 3581SOL     OW10798   1.253   1.320   1.545
 3581SOL    HW110799   1.186   1.252   1.555
 3581SOL    HW210800   1.203   1.402   1.548
 3582SOL     OW10801   2.165   1.901   1.870
 3582SOL    HW110802   2.119   1.985   1.864
 3582SOL    HW210803   2.133   1.851   1.796
 3583SOL     OW10804   3.985   0.331   0.535
 3583SOL    HW110805   4.006   0.423   0.517
 3583SOL    HW210806   3.901   0.317   0.493
 3584SOL     OW10807   0.778   1.035   1.509
 3584SOL    HW110808   0.704   1.057   1.566
 3584SOL    HW210809   0.741   1.031   1.421
 3585SOL     OW10810   3.294   2.015   1.735
 3585SOL    HW110811   3.216   1.989   1.784
 3585SOL    HW210812   3.299   2.110   1.747
 3586SOL     OW10813   4.530   2.034   2.338
 3586SOL    HW110814   4.522   2.108   2.279
 3586SOL    HW210815   4.534   2.073   2.425
 3587SOL     OW10816   4.663   2.952   4.904
 3587SOL    HW110817   4.694   2.939   0.017
 3587SOL    HW210818   4.575   2.987   4.913
 3588SOL     OW10819   2.485   3.461   4.598
 3588SOL    HW110820   2.397   3.499   4.592
 3588SOL    HW210821   2.469   3.368   4.615
 3589SOL     OW10822   4.097   0.628   1.497
 3589SOL    HW110823   4.156   0.567   1.542
 3589SOL    HW210824   4.054   0.676   1.568
 3590SOL     OW10825   0.693   1.199   3.790
 3590SOL    HW110826   0.736   1.199   3.705
 3590SOL    HW210827   0.755   1.155   3.848
 3591SOL     OW10828   4.588   2.305   0.076
 3591SOL    HW110829   4.571   2.293   4.958
 3591SOL    HW210830   4.619   2.395   0.084
 3592SOL     OW10831   4.546   3.623   0.046
 3592SOL    HW110832   4.601   3.694   0.012
 3592SOL    HW210833   4.494   3.664   0.115
 3593SOL     OW10834   2.322   1.565   3.959
 3593SOL    HW110835   2.411   1.602   3.951
 3593SOL    HW210836   2.316   1.502   3.888
 3594SOL     OW10837   0.039   2.761   0.941
 3594SOL    HW110838   4.931   2.803   0.952
 3594SOL    HW210839   0.049   2.751   0.846
 3595SOL     OW10840   0.887   4.646   0.929
 3595SOL    HW110841   0.860   4.617   0.842
 3595SOL    HW210842   0.920   4.735   0.916
 3596SOL     OW10843   2.813   0.608   3.480
 3596SOL    HW110844   2.867   0.529   3.483
 3596SOL    HW210845   2.867   0.674   3.524
 3597SOL     OW10846   3.849   4.489   3.210
 3597SOL    HW110847   3.782   4.530   3.264
 3597SOL    HW210848   3.928   4.491   3.265
 3598SOL     OW10849   0.403   2.950   3.200
 3598SOL    HW110850   0.429   2.892   3.271
 3598SOL    HW210851   0.337   3.008   3.238
 3599SOL     OW10852   2.733   4.052   3.606
 3599SOL    HW110853   2.727   4.113   3.679
 3599SOL    HW210854   2.651   4.001   3.610
 3600SOL     OW10855   3.113   0.284   3.340
 3600SOL    HW110856   3.104   0.198   3.300
 3600SOL    HW210857   3.140   0.342   3.268
 3601SOL     OW10858   0.631   4.031   1.334
 3601SOL    HW110859   0.669   4.105   1.286
 3601SOL    HW210860   0.558   4.069   1.382
 3602SOL     OW10861   1.816   4.802   1.776
 3602SOL    HW110862   1.874   4.867   1.816
 3602SOL    HW210863   1.863   4.719   1.787
 3603SOL     OW10864   0.873   1.721   3.391
 3603SOL    HW110865   0.866   1.779   3.315
 3603SOL    HW210866   0.845   1.775   3.465
 3604SOL     OW10867   0.508   2.768   3.368
 3604SOL    HW110868   0.490   2.712   3.443
 3604SOL    HW210869   0.584   2.728   3.325
 3605SOL     OW10870   4.250   2.980   1.948
 3605SOL    HW110871   4.320   2.986   1.883
 3605SOL    HW210872   4.259   2.893   1.986
 3606SOL     OW10873   0.097   2.996   1.666
 3606SOL    HW110874   0.115   2.932   1.597
 3606SOL    HW210875   0.041   2.949   1.727
 3607SOL     OW10876   1.999   4.389   4.949
 3607SOL    HW110877   1.915   4.420   4.913
 3607SOL    HW210878   1.985   4.389   0.068
 3608SOL     OW10879   0.182   2.919   4.233
 3608SOL    HW110880   0.097   2.883   4.207
 3608SOL    HW210881   0.212   2.970   4.158
 3609SOL     OW10882   4.256   2.889   3.709
 3609SOL    HW110883   4.312   2.964   3.694
 3609SOL    HW210884   4.167   2.923   3.700
 3610SOL     OW10885   4.316   3.802   3.375
 3610SOL    HW110886   4.308   3.726   3.432
 3610SOL    HW210887   4.374   3.861   3.422
 3611SOL     OW10888   0.088   1.010   0.551
 3611SOL    HW110889   0.134   1.094   0.552
 3611SOL    HW210890   0.099   0.975   0.639
 3612SOL     OW10891   0.380   2.636   1.597
 3612SOL    HW110892   0.308   2.698   1.584
 3612SOL    HW210893   0.408   2.614   1.508
 3613SOL     OW10894   3.921   4.927   3.379
 3613SOL    HW110895   3.845   4.875   3.405
 3613SOL    HW210896   3.991   4.863   3.367
 3614SOL     OW10897   3.576   1.781   4.129
 3614SOL    HW110898   3.526   1.728   4.067
 3614SOL    HW210899   3.624   1.843   4.074
 3615SOL     OW10900   1.967   0.116   4.363
 3615SOL    HW110901   1.991   0.051   4.296
 3615SOL    HW210902   1.977   0.200   4.318
 3616SOL     OW10903   0.965   0.648   4.290
 3616SOL    HW110904   1.001   0.712   4.228
 3616SOL    HW210905   0.977   0.688   4.376
 3617SOL     OW10906   4.193   4.046   0.301
 3617SOL    HW110907   4.241   4.018   0.379
 3617SOL    HW210908   4.256   4.036   0.230
 3618SOL     OW10909   1.409   0.023   1.716
 3618SOL    HW110910   1.476   0.054   1.776
 3618SOL    HW210911   1.358   4.937   1.768
 3619SOL     OW10912   1.907   3.873   1.641
 3619SOL    HW110913   1.907   3.779   1.656
 3619SOL    HW210914   1.889   3.912   1.727
 3620SOL     OW10915   0.173   3.536   2.039
 3620SOL    HW110916   0.259   3.525   2.077
 3620SOL    HW210917   0.189   3.583   1.957
 3621SOL     OW10918   0.373   4.929   2.079
 3621SOL    HW110919   0.287   4.961   2.052
 3621SOL    HW210920   0.423   0.033   2.097
 3622SOL     OW10921   2.271   0.079   1.130
 3622SOL    HW110922   2.221   0.023   1.190
 3622SOL    HW210923   2.301   0.152   1.185
 3623SOL     OW10924   2.424   1.196   2.320
 3623SOL    HW110925   2.370   1.195   2.241
 3623SOL    HW210926   2.410   1.283   2.357
 3624SOL     OW10927   4.695   4.312   0.522
 3624SOL    HW110928   4.658   4.267   0.598
 3624SOL    HW210929   4.672   4.257   0.447
 3625SOL     OW10930   3.096   4.961   4.725
 3625SOL    HW110931   3.011   4.937   4.761
 3625SOL    HW210932   3.078   0.058   4.666
 3626SOL     OW10933   4.202   2.691   2.352
 3626SOL    HW110934   4.194   2.595   2.351
 3626SOL    HW210935   4.154   2.720   2.275
 3627SOL     OW10936   1.539   4.948   4.806
 3627SOL    HW110937   1.580   4.891   4.740
 3627SOL    HW210938   1.535   4.893   4.885
 3628SOL     OW10939   3.575   3.422   4.895
 3628SOL    HW110940   3.587   3.387   0.007
 3628SOL    HW210941   3.504   3.370   4.858
 3629SOL     OW10942   4.442   1.613   2.490
 3629SOL    HW110943   4.489   1.531   2.506
 3629SOL    HW210944   4.352   1.586   2.470
 3630SOL     OW10945   0.748   0.130   1.742
 3630SOL    HW110946   0.822   0.138   1.801
 3630SOL    HW210947   0.698   0.055   1.775
 3631SOL     OW10948   1.203   2.061   3.346
 3631SOL    HW110949   1.297   2.063   3.367
 3631SOL    HW210950   1.193   1.983   3.291
 3632SOL     OW10951   4.747   1.404   3.288
 3632SOL    HW110952   4.736   1.435   3.378
 3632SOL    HW210953   4.722   1.312   3.292
 3633SOL     OW10954   3.134   2.908   3.379
 3633SOL    HW110955   3.092   2.951   3.453
 3633SOL    HW210956   3.225   2.896   3.406
 3634SOL     OW10957   2.098   1.644   1.006
 3634SOL    HW110958   2.184   1.611   1.035
 3634SOL    HW210959   2.119   1.717   0.948
 3635SOL     OW10960   4.202   0.568   4.526
 3635SOL    HW110961   4.210   0.476   4.498
 3635SOL    HW210962   4.226   0.618   4.448
 3636SOL     OW10963   2.748   4.372   0.461
 3636SOL    HW110964   2.700   4.295   0.492
 3636SOL    HW210965   2.839   4.343   0.454
 3637SOL     OW10966   2.625   4.560   0.253
 3637SOL    HW110967   2.632   4.587   0.345
 3637SOL    HW210968   2.716   4.544   0.227
 3638SOL     OW10969   0.231   4.968   2.633
 3638SOL    HW110970   0.233   4.957   2.538
 3638SOL    HW210971   0.244   0.086   2.646
 3639SOL     OW10972   4.024   1.619   0.434
 3639SOL    HW110973   4.074   1.689   0.392
 3639SOL    HW210974   3.992   1.658   0.515
 3640SOL     OW10975   0.374   3.337   1.788
 3640SOL    HW110976   0.442   3.404   1.791
 3640SOL    HW210977   0.392   3.282   1.865
 3641SOL     OW10978   2.128   0.379   0.737
 3641SOL    HW110979   2.166   0.375   0.649
 3641SOL    HW210980   2.050   0.324   0.732
 3642SOL     OW10981   3.722   0.029   4.256
 3642SOL    HW110982   3.788   0.025   4.187
 3642SOL    HW210983   3.661   4.934   4.235
 3643SOL     OW10984   1.080   2.690   3.736
 3643SOL    HW110985   1.089   2.777   3.696
 3643SOL    HW210986   1.072   2.630   3.661
 3644SOL     OW10987   0.879   0.875   3.732
 3644SOL    HW110988   0.945   0.813   3.760
 3644SOL    HW210989   0.928   0.941   3.682
 3645SOL     OW10990   4.399   3.049   4.872
 3645SOL    HW110991   4.366   3.126   4.824
 3645SOL    HW210992   4.321   2.997   4.889
 3646SOL     OW10993   4.333   3.308   3.073
 3646SOL    HW110994   4.248   3.268   3.053
 3646SOL    HW210995   4.388   3.234   3.099
 3647SOL     OW10996   4.345   3.538   2.194
 3647SOL    HW110997   4.279   3.572   2.255
 3647SOL    HW210998   4.403   3.612   2.178
 3648SOL     OW10999   1.633   3.623   3.648
 3648SOL    HW111000   1.715   3.577   3.632
 3648SOL    HW211001   1.645   3.665   3.733
 3649SOL     OW11002   4.863   1.522   1.082
 3649SOL    HW111003   4.930   1.552   1.020
 3649SOL    HW211004   4.809   1.463   1.030
 3650SOL     OW11005   0.794   3.612   0.902
 3650SOL    HW111006   0.762   3.523   0.890
 3650SOL    HW211007   0.765   3.659   0.823
 3651SOL     OW11008   2.770   3.750   4.763
 3651SOL    HW111009   2.722   3.728   4.683
 3651SOL    HW211010   2.703   3.750   4.831
 3652SOL     OW11011   0.235   0.249   2.714
 3652SOL    HW111012   0.316   0.298   2.723
 3652SOL    HW211013   0.213   0.222   2.803
 3653SOL     OW11014   4.150   2.628   0.277
 3653SOL    HW111015   4.206   2.706   0.287
 3653SOL    HW211016   4.114   2.613   0.364
 3654SOL     OW11017   3.990   0.643   4.006
 3654SOL    HW111018   3.920   0.672   3.948
 3654SOL    HW211019   4.069   0.647   3.952
 3655SOL     OW11020   1.488   0.299   0.756
 3655SOL    HW111021   1.527   0.322   0.671
 3655SOL    HW211022   1.520   0.210   0.773
 3656SOL     OW11023   3.411   1.475   1.456
 3656SOL    HW111024   3.452   1.465   1.541
 3656SOL    HW211025   3.386   1.386   1.430
 3657SOL     OW11026   4.922   2.418   3.818
 3657SOL    HW111027   0.031   2.394   3.782
 3657SOL    HW211028   4.928   2.512   3.834
 3658SOL     OW11029   4.884   4.810   3.195
 3658SOL    HW111030   4.814   4.751   3.167
 3658SOL    HW211031   4.933   4.828   3.115
 3659SOL     OW11032   4.247   4.607   4.042
 3659SOL    HW111033   4.218   4.680   3.988
 3659SOL    HW211034   4.167   4.562   4.067
 3660SOL     OW11035   0.379   0.281   3.996
 3660SOL    HW111036   0.352   0.202   3.949
 3660SOL    HW211037   0.297   0.321   4.025
 3661SOL     OW11038   2.932   3.180   4.230
 3661SOL    HW111039   2.974   3.245   4.286
 3661SOL    HW211040   2.985   3.179   4.150
 3662SOL     OW11041   3.365   0.879   4.445
 3662SOL    HW111042   3.337   0.846   4.360
 3662SOL    HW211043   3.388   0.971   4.430
 3663SOL     OW11044   2.578   0.556   3.370
 3663SOL    HW111045   2.642   0.601   3.425
 3663SOL    HW211046   2.493   0.580   3.408
 3664SOL     OW11047   2.127   3.304   4.906
 3664SOL    HW111048   2.036   3.274   4.907
 3664SOL    HW211049   2.174   3.237   4.857
 3665SOL     OW11050   2.565   4.863   2.332
 3665SOL    HW111051   2.498   4.817   2.282
 3665SOL    HW211052   2.647   4.819   2.309
 3666SOL     OW11053   0.823   3.422   0.581
 3666SOL    HW111054   0.731   3.398   0.578
 3666SOL    HW211055   0.831   3.498   0.524
 3667SOL     OW11056   1.123   2.302   1.249
 3667SOL    HW111057   1.208   2.281   1.209
 3667SOL    HW211058   1.114   2.397   1.235
 3668SOL     OW11059   4.897   2.730   4.914
 3668SOL    HW111060   4.952   2.697   0.010
 3668SOL    HW211061   4.830   2.782   4.957
 3669SOL     OW11062   1.861   3.963   3.316
 3669SOL    HW111063   1.825   3.936   3.400
 3669SOL    HW211064   1.794   3.937   3.252
 3670SOL     OW11065   1.889   3.055   4.506
 3670SOL    HW111066   1.917   2.994   4.437
 3670SOL    HW211067   1.877   2.999   4.583
 3671SOL     OW11068   1.823   2.291   0.442
 3671SOL    HW111069   1.831   2.214   0.386
 3671SOL    HW211070   1.750   2.271   0.500
 3672SOL     OW11071   2.905   0.921   0.354
 3672SOL    HW111072   2.980   0.898   0.410
 3672SOL    HW211073   2.858   0.839   0.342
 3673SOL     OW11074   2.287   3.753   0.979
 3673SOL    HW111075   2.284   3.755   1.075
 3673SOL    HW211076   2.250   3.837   0.952
 3674SOL     OW11077   0.824   1.794   4.377
 3674SOL    HW111078   0.741   1.771   4.334
 3674SOL    HW211079   0.798   1.850   4.450
 3675SOL     OW11080   0.023   4.546   0.217
 3675SOL    HW111081   4.924   4.590   0.177
 3675SOL    HW211082   0.039   4.596   0.298
 3676SOL     OW11083   3.882   3.241   1.668
 3676SOL    HW111084   3.940   3.185   1.718
 3676SOL    HW211085   3.941   3.303   1.624
 3677SOL     OW11086   4.331   2.075   4.634
 3677SOL    HW111087   4.268   2.035   4.693
 3677SOL    HW211088   4.380   2.136   4.690
 3678SOL     OW11089   2.204   0.852   3.579
 3678SOL    HW111090   2.230   0.848   3.487
 3678SOL    HW211091   2.127   0.795   3.584
 3679SOL     OW11092   4.493   3.844   2.759
 3679SOL    HW111093   4.437   3.895   2.817
 3679SOL    HW211094   4.547   3.792   2.819
 3680SOL     OW11095   1.653   1.162   2.291
 3680SOL    HW111096   1.747   1.159   2.272
 3680SOL    HW211097   1.641   1.243   2.341
 3681SOL     OW11098   4.567   3.384   3.955
 3681SOL    HW111099   4.605   3.466   3.986
 3681SOL    HW211100   4.475   3.388   3.982
 3682SOL     OW11101   0.321   1.656   0.577
 3682SOL    HW111102   0.394   1.686   0.524
 3682SOL    HW211103   0.328   1.560   0.575
 3683SOL     OW11104   4.514   0.766   4.558
 3683SOL    HW111105   4.600   0.773   4.518
 3683SOL    HW211106   4.496   0.853   4.593
 3684SOL     OW11107   3.549   2.119   0.202
 3684SOL    HW111108   3.487   2.049   0.184
 3684SOL    HW211109   3.537   2.181   0.130
 3685SOL     OW11110   1.601   1.345   4.828
 3685SOL    HW111111   1.534   1.277   4.818
 3685SOL    HW211112   1.678   1.298   4.860
 3686SOL     OW11113   2.905   1.924   3.038
 3686SOL    HW111114   2.967   1.880   3.096
 3686SOL    HW211115   2.958   1.956   2.965
 3687SOL     OW11116   2.115   1.072   3.713
 3687SOL    HW111117   2.099   0.978   3.703
 3687SOL    HW211118   2.042   1.103   3.767
 3688SOL     OW11119   2.053   4.745   3.134
 3688SOL    HW111120   1.958   4.740   3.142
 3688SOL    HW211121   2.069   4.830   3.093
 3689SOL     OW11122   2.800   3.417   0.904
 3689SOL    HW111123   2.871   3.365   0.865
 3689SOL    HW211124   2.844   3.491   0.946
 3690SOL     OW11125   0.210   3.864   4.552
 3690SOL    HW111126   0.247   3.934   4.498
 3690SOL    HW211127   0.253   3.875   4.637
 3691SOL     OW11128   3.506   3.516   2.239
 3691SOL    HW111129   3.587   3.479   2.203
 3691SOL    HW211130   3.527   3.533   2.331
 3692SOL     OW11131   4.635   0.158   3.391
 3692SOL    HW111132   4.643   0.134   3.484
 3692SOL    HW211133   4.580   0.236   3.391
 3693SOL     OW11134   2.252   0.038   4.814
 3693SOL    HW111135   2.227   4.933   4.859
 3693SOL    HW211136   2.199   0.106   4.857
 3694SOL     OW11137   3.459   2.666   4.458
 3694SOL    HW111138   3.441   2.578   4.491
 3694SOL    HW211139   3.507   2.652   4.376
 3695SOL     OW11140   1.388   1.120   1.095
 3695SOL    HW111141   1.419   1.031   1.115
 3695SOL    HW211142   1.430   1.175   1.161
 3696SOL     OW11143   4.808   3.820   1.709
 3696SOL    HW111144   4.804   3.725   1.716
 3696SOL    HW211145   4.817   3.851   1.799
 3697SOL     OW11146   1.733   1.907   0.071
 3697SOL    HW111147   1.795   1.898   4.975
 3697SOL    HW211148   1.647   1.903   0.030
 3698SOL     OW11149   4.588   1.813   2.636
 3698SOL    HW111150   4.525   1.845   2.700
 3698SOL    HW211151   4.543   1.742   2.590
 3699SOL     OW11152   3.515   0.655   2.840
 3699SOL    HW111153   3.568   0.668   2.761
 3699SOL    HW211154   3.479   0.742   2.859
 3700SOL     OW11155   1.463   1.400   1.705
 3700SOL    HW111156   1.385   1.375   1.656
 3700SOL    HW211157   1.446   1.490   1.734
 3701SOL     OW11158   4.839   0.904   1.957
 3701SOL    HW111159   4.903   0.964   1.919
 3701SOL    HW211160   4.815   0.845   1.886
 3702SOL     OW11161   2.811   2.374   1.996
 3702SOL    HW111162   2.795   2.324   1.916
 3702SOL    HW211163   2.867   2.447   1.968
 3703SOL     OW11164   2.300   4.522   4.186
 3703SOL    HW111165   2.290   4.430   4.210
 3703SOL    HW211166   2.261   4.570   4.260
 3704SOL     OW11167   2.347   3.257   2.776
 3704SOL    HW111168   2.434   3.270   2.739
 3704SOL    HW211169   2.287   3.291   2.709
 3705SOL     OW11170   3.226   1.585   3.513
 3705SOL    HW111171   3.165   1.604   3.442
 3705SOL    HW211172   3.282   1.516   3.478
 3706SOL     OW11173   4.343   1.916   0.131
 3706SOL    HW111174   4.430   1.940   0.165
 3706SOL    HW211175   4.357   1.904   0.037
 3707SOL     OW11176   3.739   4.874   2.385
 3707SOL    HW111177   3.799   4.800   2.373
 3707SOL    HW211178   3.675   4.842   2.448
 3708SOL     OW11179   3.676   3.511   0.326
 3708SOL    HW111180   3.626   3.585   0.292
 3708SOL    HW211181   3.631   3.434   0.292
 3709SOL     OW11182   1.545   1.499   0.411
 3709SOL    HW111183   1.607   1.446   0.462
 3709SOL    HW211184   1.554   1.466   0.321
 3710SOL     OW11185   4.464   3.241   0.251
 3710SOL    HW111186   4.371   3.260   0.235
 3710SOL    HW211187   4.497   3.317   0.299
 3711SOL     OW11188   3.852   3.045   0.691
 3711SOL    HW111189   3.872   3.124   0.642
 3711SOL    HW211190   3.911   2.978   0.656
 3712SOL     OW11191   4.795   4.577   0.827
 3712SOL    HW111192   4.732   4.548   0.894
 3712SOL    HW211193   4.821   4.664   0.856
 3713SOL     OW11194   0.736   1.620   2.417
 3713SOL    HW111195   0.722   1.667   2.335
 3713SOL    HW211196   0.700   1.533   2.401
 3714SOL     OW11197   2.948   0.740   4.219
 3714SOL    HW111198   2.966   0.664   4.165
 3714SOL    HW211199   2.893   0.707   4.290
 3715SOL     OW11200   1.463   3.112   1.528
 3715SOL    HW111201   1.506   3.076   1.605
 3715SOL    HW211202   1.369   3.103   1.547
 3716SOL     OW11203   1.154   3.004   2.230
 3716SOL    HW111204   1.208   3.042   2.161
 3716SOL    HW211205   1.152   2.911   2.210
 3717SOL     OW11206   2.716   3.364   4.126
 3717SOL    HW111207   2.664   3.406   4.195
 3717SOL    HW211208   2.769   3.299   4.172
 3718SOL     OW11209   2.264   1.380   2.103
 3718SOL    HW111210   2.319   1.325   2.048
 3718SOL    HW211211   2.215   1.434   2.042
 3719SOL     OW11212   1.832   4.715   3.525
 3719SOL    HW111213   1.860   4.682   3.610
 3719SOL    HW211214   1.803   4.637   3.477
 3720SOL     OW11215   0.209   1.381   1.278
 3720SOL    HW111216   0.166   1.373   1.363
 3720SOL    HW211217   0.296   1.341   1.291
 3721SOL     OW11218   0.843   4.559   4.582
 3721SOL    HW111219   0.892   4.635   4.549
 3721SOL    HW211220   0.789   4.595   4.653
 3722SOL     OW11221   0.230   2.827   1.837
 3722SOL    HW111222   0.178   2.754   1.872
 3722SOL    HW211223   0.193   2.905   1.878
 3723SOL     OW11224   0.723   1.434   2.939
 3723SOL    HW111225   0.726   1.413   2.846
 3723SOL    HW211226   0.792   1.500   2.951
 3724SOL     OW11227   1.959   4.290   1.935
 3724SOL    HW111228   1.887   4.254   1.987
 3724SOL    HW211229   2.011   4.213   1.911
 3725SOL     OW11230   2.511   1.580   2.964
 3725SOL    HW111231   2.486   1.488   2.964
 3725SOL    HW211232   2.476   1.614   2.882
 3726SOL     OW11233   3.441   4.264   2.717
 3726SOL    HW111234   3.500   4.326   2.760
 3726SOL    HW211235   3.467   4.266   2.625
 3727SOL     OW11236   3.929   3.211   2.904
 3727SOL    HW111237   3.952   3.295   2.945
 3727SOL    HW211238   3.977   3.146   2.954
 3728SOL     OW11239   2.557   4.350   0.924
 3728SOL    HW111240   2.487   4.366   0.860
 3728SOL    HW211241   2.571   4.255   0.921
 3729SOL     OW11242   0.416   3.899   0.258
 3729SOL    HW111243   0.336   3.897   0.206
 3729SOL    HW211244   0.483   3.861   0.200
 3730SOL     OW11245   3.904   2.556   1.767
 3730SOL    HW111246   3.811   2.550   1.790
 3730SOL    HW211247   3.906   2.616   1.692
 3731SOL     OW11248   1.725   0.351   1.814
 3731SOL    HW111249   1.644   0.399   1.794
 3731SOL    HW211250   1.771   0.407   1.876
 3732SOL     OW11251   4.802   4.402   2.155
 3732SOL    HW111252   4.727   4.453   2.188
 3732SOL    HW211253   4.794   4.317   2.199
 3733SOL     OW11254   1.722   0.805   4.071
 3733SOL    HW111255   1.732   0.887   4.120
 3733SOL    HW211256   1.810   0.789   4.035
 3734SOL     OW11257   3.711   1.713   2.833
 3734SOL    HW111258   3.682   1.673   2.751
 3734SOL    HW211259   3.793   1.668   2.854
 3735SOL     OW11260   2.215   4.566   3.238
 3735SOL    HW111261   2.164   4.636   3.197
 3735SOL    HW211262   2.180   4.562   3.328
 3736SOL     OW11263   4.502   0.766   1.910
 3736SOL    HW111264   4.424   0.803   1.870
 3736SOL    HW211265   4.506   0.806   1.997
 3737SOL     OW11266   2.395   1.618   3.489
 3737SOL    HW111267   2.380   1.657   3.403
 3737SOL    HW211268   2.346   1.675   3.549
 3738SOL     OW11269   2.190   2.217   0.966
 3738SOL    HW111270   2.220   2.290   1.021
 3738SOL    HW211271   2.210   2.139   1.017
 3739SOL     OW11272   4.472   3.713   4.250
 3739SOL    HW111273   4.385   3.741   4.278
 3739SOL    HW211274   4.481   3.624   4.284
 3740SOL     OW11275   3.763   0.983   4.823
 3740SOL    HW111276   3.774   1.042   4.749
 3740SOL    HW211277   3.715   0.908   4.787
 3741SOL     OW11278   0.780   4.392   3.914
 3741SOL    HW111279   0.833   4.405   3.993
 3741SOL    HW211280   0.842   4.360   3.849
 3742SOL     OW11281   0.029   3.821   4.178
 3742SOL    HW111282   4.972   3.816   4.267
 3742SOL    HW211283   0.052   3.731   4.155
 3743SOL     OW11284   0.447   1.264   1.389
 3743SOL    HW111285   0.436   1.336   1.451
 3743SOL    HW211286   0.433   1.185   1.441
 3744SOL     OW11287   4.182   1.868   1.856
 3744SOL    HW111288   4.116   1.855   1.925
 3744SOL    HW211289   4.164   1.957   1.823
 3745SOL     OW11290   4.661   4.017   3.729
 3745SOL    HW111291   4.633   3.994   3.818
 3745SOL    HW211292   4.710   4.098   3.739
 3746SOL     OW11293   2.707   0.839   1.874
 3746SOL    HW111294   2.770   0.824   1.804
 3746SOL    HW211295   2.725   0.771   1.938
 3747SOL     OW11296   4.294   4.011   1.981
 3747SOL    HW111297   4.349   4.085   2.006
 3747SOL    HW211298   4.307   4.003   1.886
 3748SOL     OW11299   0.240   3.051   3.678
 3748SOL    HW111300   0.201   3.137   3.661
 3748SOL    HW211301   0.314   3.046   3.617
 3749SOL     OW11302   4.375   2.050   3.082
 3749SOL    HW111303   4.357   2.086   3.169
 3749SOL    HW211304   4.289   2.026   3.048
 3750SOL     OW11305   0.963   1.060   2.126
 3750SOL    HW111306   1.053   1.030   2.139
 3750SOL    HW211307   0.962   1.096   2.037
 3751SOL     OW11308   3.896   3.573   0.923
 3751SOL    HW111309   3.911   3.610   1.010
 3751SOL    HW211310   3.804   3.592   0.904
 3752SOL     OW11311   1.324   4.166   4.851
 3752SOL    HW111312   1.390   4.227   4.820
 3752SOL    HW211313   1.369   4.113   4.917
 3753SOL     OW11314   3.404   0.903   3.719
 3753SOL    HW111315   3.414   0.936   3.629
 3753SOL    HW211316   3.367   0.816   3.708
 3754SOL     OW11317   1.366   4.022   3.686
 3754SOL    HW111318   1.337   3.934   3.663
 3754SOL    HW211319   1.358   4.073   3.605
 3755SOL     OW11320   4.791   1.088   1.107
 3755SOL    HW111321   4.784   1.154   1.175
 3755SOL    HW211322   4.705   1.045   1.106
 3756SOL     OW11323   4.019   1.342   1.668
 3756SOL    HW111324   3.924   1.345   1.653
 3756SOL    HW211325   4.038   1.422   1.716
 3757SOL     OW11326   1.677   2.338   0.701
 3757SOL    HW111327   1.757   2.387   0.721
 3757SOL    HW211328   1.689   2.253   0.744
 3758SOL     OW11329   0.311   1.469   2.637
 3758SOL    HW111330   0.230   1.519   2.643
 3758SOL    HW211331   0.367   1.522   2.580
 3759SOL     OW11332   0.052   4.425   0.964
 3759SOL    HW111333   4.960   4.484   0.934
 3759SOL    HW211334   0.095   4.394   0.884
 3760SOL     OW11335   2.995   1.593   4.363
 3760SOL    HW111336   2.926   1.587   4.429
 3760SOL    HW211337   2.948   1.588   4.280
 3761SOL     OW11338   1.464   1.046   4.046
 3761SOL    HW111339   1.467   1.044   3.950
 3761SOL    HW211340   1.437   0.958   4.071
 3762SOL     OW11341   1.172   0.161   4.178
 3762SOL    HW111342   1.095   0.216   4.192
 3762SOL    HW211343   1.195   0.175   4.086
 3763SOL     OW11344   0.732   0.462   3.588
 3763SOL    HW111345   0.752   0.377   3.550
 3763SOL    HW211346   0.790   0.523   3.541
 3764SOL     OW11347   2.972   0.282   1.270
 3764SOL    HW111348   2.954   0.318   1.183
 3764SOL    HW211349   3.019   0.200   1.253
 3765SOL     OW11350   2.724   2.541   3.777
 3765SOL    HW111351   2.805   2.495   3.760
 3765SOL    HW211352   2.656   2.474   3.772
 3766SOL     OW11353   1.840   0.886   0.888
 3766SOL    HW111354   1.842   0.791   0.878
 3766SOL    HW211355   1.846   0.900   0.983
 3767SOL     OW11356   4.073   0.187   0.213
 3767SOL    HW111357   4.129   0.261   0.189
 3767SOL    HW211358   3.984   0.222   0.207
 3768SOL     OW11359   1.647   1.798   2.946
 3768SOL    HW111360   1.635   1.870   2.884
 3768SOL    HW211361   1.705   1.737   2.901
 3769SOL     OW11362   1.333   0.206   2.412
 3769SOL    HW111363   1.392   0.261   2.462
 3769SOL    HW211364   1.297   0.144   2.477
 3770SOL     OW11365   1.070   4.696   2.186
 3770SOL    HW111366   0.979   4.683   2.215
 3770SOL    HW211367   1.089   4.619   2.132
 3771SOL     OW11368   4.382   0.362   0.341
 3771SOL    HW111369   4.397   0.287   0.283
 3771SOL    HW211370   4.403   0.328   0.428
 3772SOL     OW11371   3.763   0.963   4.541
 3772SOL    HW111372   3.713   0.907   4.481
 3772SOL    HW211373   3.849   0.972   4.500
 3773SOL     OW11374   0.431   2.545   0.859
 3773SOL    HW111375   0.432   2.473   0.922
 3773SOL    HW211376   0.464   2.507   0.778
 3774SOL     OW11377   0.567   2.362   4.531
 3774SOL    HW111378   0.620   2.382   4.454
 3774SOL    HW211379   0.480   2.393   4.508
 3775SOL     OW11380   1.082   0.858   4.165
 3775SOL    HW111381   1.092   0.951   4.146
 3775SOL    HW211382   1.117   0.814   4.087
 3776SOL     OW11383   1.980   1.609   1.259
 3776SOL    HW111384   2.001   1.521   1.229
 3776SOL    HW211385   2.008   1.666   1.187
 3777SOL     OW11386   2.180   2.638   0.296
 3777SOL    HW111387   2.134   2.556   0.278
 3777SOL    HW211388   2.227   2.621   0.378
 3778SOL     OW11389   1.208   0.737   0.769
 3778SOL    HW111390   1.262   0.689   0.831
 3778SOL    HW211391   1.135   0.678   0.750
 3779SOL     OW11392   1.484   0.444   2.499
 3779SOL    HW111393   1.515   0.534   2.512
 3779SOL    HW211394   1.500   0.401   2.583
 3780SOL     OW11395   0.685   2.989   3.416
 3780SOL    HW111396   0.747   2.972   3.486
 3780SOL    HW211397   0.602   2.954   3.448
 3781SOL     OW11398   1.419   0.272   2.155
 3781SOL    HW111399   1.489   0.335   2.174
 3781SOL    HW211400   1.388   0.245   2.242
 3782SOL     OW11401   4.113   2.488   0.905
 3782SOL    HW111402   4.097   2.488   0.999
 3782SOL    HW211403   4.025   2.478   0.866
 3783SOL     OW11404   3.551   3.293   0.146
 3783SOL    HW111405   3.593   3.209   0.164
 3783SOL    HW211406   3.482   3.300   0.212
 3784SOL     OW11407   1.845   1.895   3.956
 3784SOL    HW111408   1.930   1.852   3.954
 3784SOL    HW211409   1.792   1.848   3.891
 3785SOL     OW11410   3.695   4.376   0.688
 3785SOL    HW111411   3.752   4.424   0.628
 3785SOL    HW211412   3.715   4.284   0.670
 3786SOL     OW11413   1.425   1.152   4.770
 3786SOL    HW111414   1.429   1.118   4.680
 3786SOL    HW211415   1.332   1.145   4.793
 3787SOL     OW11416   1.986   1.469   1.569
 3787SOL    HW111417   1.891   1.477   1.567
 3787SOL    HW211418   2.013   1.472   1.477
 3788SOL     OW11419   0.561   1.462   1.078
 3788SOL    HW111420   0.649   1.492   1.059
 3788SOL    HW211421   0.532   1.514   1.153
 3789SOL     OW11422   2.624   4.437   4.472
 3789SOL    HW111423   2.645   4.367   4.411
 3789SOL    HW211424   2.707   4.483   4.487
 3790SOL     OW11425   3.548   2.705   3.730
 3790SOL    HW111426   3.544   2.753   3.813
 3790SOL    HW211427   3.583   2.619   3.754
 3791SOL     OW11428   0.396   2.901   0.361
 3791SOL    HW111429   0.463   2.914   0.428
 3791SOL    HW211430   0.397   2.807   0.343
 3792SOL     OW11431   2.516   4.942   4.770
 3792SOL    HW111432   2.538   0.002   4.684
 3792SOL    HW211433   2.420   4.946   4.774
 3793SOL     OW11434   0.444   1.598   1.256
 3793SOL    HW111435   0.478   1.667   1.312
 3793SOL    HW211436   0.360   1.574   1.295
 3794SOL     OW11437   2.856   3.085   3.775
 3794SOL    HW111438   2.766   3.112   3.756
 3794SOL    HW211439   2.846   3.011   3.835
 3795SOL     OW11440   0.714   4.366   4.870
 3795SOL    HW111441   0.778   4.355   4.940
 3795SOL    HW211442   0.714   4.460   4.852
 3796SOL     OW11443   3.272   0.899   3.229
 3796SOL    HW111444   3.253   0.818   3.277
 3796SOL    HW211445   3.344   0.876   3.170
 3797SOL     OW11446   2.317   0.103   0.411
 3797SOL    HW111447   2.337   0.126   0.320
 3797SOL    HW211448   2.384   0.038   0.434
 3798SOL     OW11449   4.320   3.352   3.382
 3798SOL    HW111450   4.227   3.370   3.392
 3798SOL    HW211451   4.331   3.336   3.288
 3799SOL     OW11452   3.339   3.687   3.235
 3799SOL    HW111453   3.395   3.627   3.283
 3799SOL    HW211454   3.362   3.674   3.143
 3800SOL     OW11455   1.293   2.370   0.370
 3800SOL    HW111456   1.375   2.335   0.335
 3800SOL    HW211457   1.266   2.307   0.436
 3801SOL     OW11458   2.506   0.827   1.647
 3801SOL    HW111459   2.487   0.914   1.614
 3801SOL    HW211460   2.586   0.837   1.699
 3802SOL     OW11461   2.142   2.500   4.430
 3802SOL    HW111462   2.116   2.526   4.519
 3802SOL    HW211463   2.080   2.431   4.407
 3803SOL     OW11464   3.395   3.317   3.108
 3803SOL    HW111465   3.413   3.348   3.197
 3803SOL    HW211466   3.335   3.243   3.120
 3804SOL     OW11467   0.702   0.849   3.142
 3804SOL    HW111468   0.759   0.812   3.074
 3804SOL    HW211469   0.644   0.909   3.095
 3805SOL     OW11470   2.243   2.653   0.787
 3805SOL    HW111471   2.199   2.624   0.867
 3805SOL    HW211472   2.294   2.730   0.813
 3806SOL     OW11473   1.413   4.890   3.549
 3806SOL    HW111474   1.463   4.855   3.476
 3806SOL    HW211475   1.328   4.847   3.543
 3807SOL     OW11476   1.833   2.081   0.271
 3807SOL    HW111477   1.783   2.061   0.191
 3807SOL    HW211478   1.919   2.107   0.239
 3808SOL     OW11479   2.888   3.421   3.679
 3808SOL    HW111480   2.884   3.516   3.672
 3808SOL    HW211481   2.955   3.405   3.746
 3809SOL     OW11482   4.072   0.510   2.617
 3809SOL    HW111483   4.047   0.428   2.660
 3809SOL    HW211484   4.131   0.552   2.680
 3810SOL     OW11485   3.019   0.555   4.024
 3810SOL    HW111486   3.093   0.509   4.065
 3810SOL    HW211487   3.049   0.573   3.935
 3811SOL     OW11488   4.438   4.432   4.603
 3811SOL    HW111489   4.493   4.357   4.580
 3811SOL    HW211490   4.352   4.410   4.569
 3812SOL     OW11491   1.129   3.520   3.142
 3812SOL    HW111492   1.150   3.526   3.235
 3812SOL    HW211493   1.079   3.439   3.134
 3813SOL     OW11494   1.478   3.066   2.920
 3813SOL    HW111495   1.391   3.105   2.928
 3813SOL    HW211496   1.469   2.999   2.852
 3814SOL     OW11497   4.583   2.034   1.043
 3814SOL    HW111498   4.625   1.948   1.037
 3814SOL    HW211499   4.639   2.091   0.990
 3815SOL     OW11500   3.704   3.326   0.981
 3815SOL    HW111501   3.687   3.420   0.974
 3815SOL    HW211502   3.793   3.320   1.016
 3816SOL     OW11503   4.680   2.526   4.752
 3816SOL    HW111504   4.625   2.582   4.808
 3816SOL    HW211505   4.766   2.527   4.795
 3817SOL     OW11506   0.497   1.512   4.679
 3817SOL    HW111507   0.547   1.447   4.628
 3817SOL    HW211508   0.562   1.573   4.711
 3818SOL     OW11509   1.231   0.488   0.557
 3818SOL    HW111510   1.256   0.561   0.500
 3818SOL    HW211511   1.269   0.511   0.642
 3819SOL     OW11512   0.924   3.851   4.354
 3819SOL    HW111513   0.933   3.849   4.259
 3819SOL    HW211514   0.856   3.917   4.371
 3820SOL     OW11515   3.565   3.352   2.899
 3820SOL    HW111516   3.504   3.330   2.969
 3820SOL    HW211517   3.576   3.446   2.904
 3821SOL     OW11518   0.551   4.873   1.025
 3821SOL    HW111519   0.567   4.964   1.000
 3821SOL    HW211520   0.552   4.825   0.941
 3822SOL     OW11521   2.577   0.639   4.466
 3822SOL    HW111522   2.567   0.721   4.418
 3822SOL    HW211523   2.672   0.626   4.471
 3823SOL     OW11524   3.330   3.974   3.753
 3823SOL    HW111525   3.237   3.978   3.776
 3823SOL    HW211526   3.374   4.017   3.826
 3824SOL     OW11527   4.366   4.942   0.393
 3824SOL    HW111528   4.325   0.038   0.442
 3824SOL    HW211529   4.399   0.008   0.313
 3825SOL     OW11530   0.484   0.328   1.112
 3825SOL    HW111531   0.509   0.415   1.082
 3825SOL    HW211532   0.396   0.339   1.148
 3826SOL     OW11533   3.257   0.098   1.987
 3826SOL    HW111534   3.294   0.012   2.004
 3826SOL    HW211535   3.177   0.080   1.938
 3827SOL     OW11536   3.238   4.417   2.018
 3827SOL    HW111537   3.214   4.371   2.098
 3827SOL    HW211538   3.307   4.477   2.045
 3828SOL     OW11539   3.879   1.393   4.794
 3828SOL    HW111540   3.905   1.484   4.778
 3828SOL    HW211541   3.804   1.400   4.852
 3829SOL     OW11542   0.306   2.606   4.214
 3829SOL    HW111543   0.292   2.575   4.124
 3829SOL    HW211544   0.400   2.619   4.220
 3830SOL     OW11545   3.456   3.427   4.225
 3830SOL    HW111546   3.429   3.400   4.313
 3830SOL    HW211547   3.539   3.381   4.211
 3831SOL     OW11548   1.854   1.215   3.946
 3831SOL    HW111549   1.767   1.180   3.963
 3831SOL    HW211550   1.851   1.304   3.979
 3832SOL     OW11551   3.453   0.889   0.366
 3832SOL    HW111552   3.538   0.851   0.347
 3832SOL    HW211553   3.391   0.833   0.320
 3833SOL     OW11554   1.086   0.935   0.228
 3833SOL    HW111555   1.177   0.957   0.250
 3833SOL    HW211556   1.094   0.882   0.149
 3834SOL     OW11557   1.169   4.799   1.530
 3834SOL    HW111558   1.252   4.829   1.568
 3834SOL    HW211559   1.137   4.732   1.590
 3835SOL     OW11560   1.630   0.443   3.978
 3835SOL    HW111561   1.608   0.362   4.025
 3835SOL    HW211562   1.708   0.476   4.022
 3836SOL     OW11563   0.973   3.256   2.552
 3836SOL    HW111564   1.035   3.239   2.480
 3836SOL    HW211565   0.972   3.175   2.602
 3837SOL     OW11566   3.426   3.250   1.083
 3837SOL    HW111567   3.508   3.265   1.036
 3837SOL    HW211568   3.445   3.178   1.143
 3838SOL     OW11569   1.178   0.440   1.445
 3838SOL    HW111570   1.116   0.434   1.518
 3838SOL    HW211571   1.250   0.382   1.471
 3839SOL     OW11572   2.591   0.242   2.756
 3839SOL    HW111573   2.556   0.331   2.763
 3839SOL    HW211574   2.618   0.234   2.665
 3840SOL     OW11575   0.727   2.890   4.901
 3840SOL    HW111576   0.787   2.963   4.912
 3840SOL    HW211577   0.654   2.926   4.851
 3841SOL     OW11578   3.676   4.023   0.862
 3841SOL    HW111579   3.663   3.977   0.945
 3841SOL    HW211580   3.769   4.047   0.863
 3842SOL     OW11581   4.300   4.148   3.175
 3842SOL    HW111582   4.263   4.136   3.262
 3842SOL    HW211583   4.342   4.234   3.179
 3843SOL     OW11584   4.649   1.925   3.608
 3843SOL    HW111585   4.568   1.881   3.580
 3843SOL    HW211586   4.715   1.894   3.547
 3844SOL     OW11587   4.798   3.284   4.376
 3844SOL    HW111588   4.855   3.359   4.392
 3844SOL    HW211589   4.814   3.225   4.450
 3845SOL     OW11590   1.103   2.797   0.966
 3845SOL    HW111591   1.192   2.817   0.994
 3845SOL    HW211592   1.097   2.833   0.878
 3846SOL     OW11593   3.935   3.812   0.638
 3846SOL    HW111594   3.901   3.867   0.707
 3846SOL    HW211595   3.870   3.742   0.627
 3847SOL     OW11596   4.114   1.693   4.270
 3847SOL    HW111597   4.075   1.675   4.184
 3847SOL    HW211598   4.059   1.761   4.308
 3848SOL     OW11599   2.158   4.436   1.406
 3848SOL    HW111600   2.167   4.423   1.311
 3848SOL    HW211601   2.180   4.528   1.420
 3849SOL     OW11602   1.938   1.006   0.667
 3849SOL    HW111603   1.894   0.962   0.739
 3849SOL    HW211604   1.905   0.963   0.588
 3850SOL     OW11605   1.242   4.909   2.247
 3850SOL    HW111606   1.168   4.852   2.266
 3850SOL    HW211607   1.241   4.975   2.315
 3851SOL     OW11608   1.997   1.538   3.476
 3851SOL    HW111609   1.908   1.504   3.487
 3851SOL    HW211610   2.025   1.562   3.564
 3852SOL     OW11611   2.341   3.442   1.458
 3852SOL    HW111612   2.299   3.360   1.487
 3852SOL    HW211613   2.375   3.481   1.538
 3853SOL     OW11614   1.178   0.021   4.940
 3853SOL    HW111615   1.168   0.089   4.873
 3853SOL    HW211616   1.139   4.919   4.901
 3854SOL     OW11617   4.234   2.183   0.004
 3854SOL    HW111618   4.250   2.154   0.094
 3854SOL    HW211619   4.190   2.109   4.938
 3855SOL     OW11620   2.433   4.307   2.736
 3855SOL    HW111621   2.406   4.368   2.805
 3855SOL    HW211622   2.529   4.315   2.735
 3856SOL     OW11623   0.394   2.638   2.866
 3856SOL    HW111624   0.312   2.681   2.843
 3856SOL    HW211625   0.451   2.709   2.896
 3857SOL     OW11626   2.043   1.277   0.736
 3857SOL    HW111627   1.991   1.196   0.738
 3857SOL    HW211628   2.025   1.313   0.649
 3858SOL     OW11629   3.641   2.483   1.343
 3858SOL    HW111630   3.563   2.429   1.355
 3858SOL    HW211631   3.707   2.441   1.398
 3859SOL     OW11632   4.879   1.501   2.071
 3859SOL    HW111633   4.891   1.592   2.043
 3859SOL    HW211634   4.846   1.508   2.161
 3860SOL     OW11635   0.823   1.223   3.557
 3860SOL    HW111636   0.862   1.307   3.533
 3860SOL    HW211637   0.771   1.198   3.481
 3861SOL     OW11638   2.275   3.834   3.165
 3861SOL    HW111639   2.305   3.915   3.122
 3861SOL    HW211640   2.181   3.834   3.152
 3862SOL     OW11641   0.073   1.532   1.766
 3862SOL    HW111642   4.976   1.580   1.727
 3862SOL    HW211643   0.123   1.598   1.813
 3863SOL     OW11644   4.152   4.663   2.572
 3863SOL    HW111645   4.073   4.718   2.577
 3863SOL    HW211646   4.224   4.723   2.589
 3864SOL     OW11647   3.346   4.632   4.134
 3864SOL    HW111648   3.361   4.589   4.050
 3864SOL    HW211649   3.319   4.562   4.193
 3865SOL     OW11650   1.251   4.312   1.252
 3865SOL    HW111651   1.245   4.231   1.301
 3865SOL    HW211652   1.160   4.337   1.236
 3866SOL     OW11653   3.398   0.439   0.130
 3866SOL    HW111654   3.475   0.437   0.073
 3866SOL    HW211655   3.407   0.360   0.184
 3867SOL     OW11656   4.349   3.925   4.762
 3867SOL    HW111657   4.259   3.895   4.778
 3867SOL    HW211658   4.351   4.014   4.797
 3868SOL     OW11659   2.197   0.757   0.350
 3868SOL    HW111660   2.183   0.723   0.438
 3868SOL    HW211661   2.276   0.810   0.357
 3869SOL     OW11662   3.422   2.540   2.887
 3869SOL    HW111663   3.418   2.450   2.920
 3869SOL    HW211664   3.410   2.531   2.793
 3870SOL     OW11665   0.692   0.628   4.096
 3870SOL    HW111666   0.712   0.548   4.048
 3870SOL    HW211667   0.600   0.621   4.119
 3871SOL     OW11668   3.602   4.849   0.490
 3871SOL    HW111669   3.687   4.886   0.466
 3871SOL    HW211670   3.620   4.798   0.569
 3872SOL     OW11671   0.671   0.767   0.334
 3872SOL    HW111672   0.745   0.706   0.331
 3872SOL    HW211673   0.682   0.813   0.418
 3873SOL     OW11674   2.401   1.938   3.716
 3873SOL    HW111675   2.431   1.948   3.806
 3873SOL    HW211676   2.419   2.022   3.674
 3874SOL     OW11677   4.415   0.806   0.264
 3874SOL    HW111678   4.327   0.798   0.301
 3874SOL    HW211679   4.427   0.724   0.215
 3875SOL     OW11680   1.692   0.453   1.087
 3875SOL    HW111681   1.656   0.479   1.002
 3875SOL    HW211682   1.666   0.523   1.147
 3876SOL     OW11683   4.665   3.916   0.539
 3876SOL    HW111684   4.686   3.996   0.587
 3876SOL    HW211685   4.672   3.847   0.604
 3877SOL     OW11686   2.899   3.553   4.901
 3877SOL    HW111687   2.908   3.512   4.815
 3877SOL    HW211688   2.848   3.632   4.884
 3878SOL     OW11689   1.833   3.300   1.619
 3878SOL    HW111690   1.763   3.316   1.556
 3878SOL    HW211691   1.901   3.364   1.597
 3879SOL     OW11692   0.907   0.096   0.363
 3879SOL    HW111693   0.977   0.155   0.333
 3879SOL    HW211694   0.950   0.035   0.422
 3880SOL     OW11695   1.441   4.882   3.133
 3880SOL    HW111696   1.506   4.912   3.197
 3880SOL    HW211697   1.431   4.789   3.150
 3881SOL     OW11698   1.936   0.870   1.129
 3881SOL    HW111699   2.022   0.854   1.090
 3881SOL    HW211700   1.923   0.797   1.190
 3882SOL     OW11701   3.796   0.272   0.205
 3882SOL    HW111702   3.778   0.232   0.120
 3882SOL    HW211703   3.713   0.308   0.234
 3883SOL     OW11704   0.938   3.858   1.970
 3883SOL    HW111705   0.904   3.810   1.895
 3883SOL    HW211706   0.860   3.884   2.019
 3884SOL     OW11707   2.571   4.869   3.527
 3884SOL    HW111708   2.479   4.890   3.508
 3884SOL    HW211709   2.590   4.916   3.608
 3885SOL     OW11710   1.579   2.974   3.820
 3885SOL    HW111711   1.618   3.060   3.828
 3885SOL    HW211712   1.651   2.916   3.797
 3886SOL     OW11713   0.330   4.930   1.717
 3886SOL    HW111714   0.270   0.028   1.703
 3886SOL    HW211715   0.286   4.875   1.782
 3887SOL     OW11716   3.745   3.341   3.635
 3887SOL    HW111717   3.705   3.344   3.549
 3887SOL    HW211718   3.739   3.249   3.661
 3888SOL     OW11719   3.237   2.352   2.094
 3888SOL    HW111720   3.223   2.303   2.175
 3888SOL    HW211721   3.257   2.441   2.124
 3889SOL     OW11722   4.339   3.080   3.964
 3889SOL    HW111723   4.422   3.033   3.967
 3889SOL    HW211724   4.362   3.171   3.984
 3890SOL     OW11725   3.859   3.124   3.380
 3890SOL    HW111726   3.917   3.064   3.333
 3890SOL    HW211727   3.842   3.194   3.318
 3891SOL     OW11728   2.584   1.605   3.942
 3891SOL    HW111729   2.637   1.528   3.962
 3891SOL    HW211730   2.620   1.675   3.997
 3892SOL     OW11731   1.692   3.058   0.095
 3892SOL    HW111732   1.650   3.036   0.178
 3892SOL    HW211733   1.672   2.985   0.037
 3893SOL     OW11734   4.692   0.330   1.511
 3893SOL    HW111735   4.631   0.391   1.551
 3893SOL    HW211736   4.676   0.338   1.417
 3894SOL     OW11737   1.893   2.674   2.060
 3894SOL    HW111738   1.915   2.665   2.152
 3894SOL    HW211739   1.921   2.763   2.037
 3895SOL     OW11740   1.222   3.831   0.601
 3895SOL    HW111741   1.131   3.839   0.573
 3895SOL    HW211742   1.228   3.743   0.638
 3896SOL     OW11743   0.908   3.849   0.530
 3896SOL    HW111744   0.824   3.889   0.509
 3896SOL    HW211745   0.934   3.804   0.450
 3897SOL     OW11746   2.161   1.889   0.891
 3897SOL    HW111747   2.176   1.947   0.817
 3897SOL    HW211748   2.201   1.934   0.965
 3898SOL     OW11749   4.148   0.132   0.491
 3898SOL    HW111750   4.095   0.208   0.513
 3898SOL    HW211751   4.158   0.136   0.396
 3899SOL     OW11752   0.074   4.693   0.433
 3899SOL    HW111753   0.004   4.648   0.480
 3899SOL    HW211754   0.147   4.694   0.495
 3900SOL     OW11755   3.204   2.603   0.473
 3900SOL    HW111756   3.236   2.664   0.405
 3900SOL    HW211757   3.121   2.642   0.502
 3901SOL     OW11758   1.572   0.655   4.476
 3901SOL    HW111759   1.491   0.631   4.431
 3901SOL    HW211760   1.543   0.707   4.551
 3902SOL     OW11761   4.400   2.731   1.959
 3902SOL    HW111762   4.445   2.651   1.932
 3902SOL    HW211763   4.453   2.764   2.032
 3903SOL     OW11764   2.253   0.443   4.959
 3903SOL    HW111765   2.199   0.514   0.017
 3903SOL    HW211766   2.212   0.419   4.876
 3904SOL     OW11767   1.789   0.144   1.627
 3904SOL    HW111768   1.802   0.074   1.690
 3904SOL    HW211769   1.783   0.223   1.681
 3905SOL     OW11770   1.294   2.391   1.475
 3905SOL    HW111771   1.270   2.420   1.387
 3905SOL    HW211772   1.286   2.295   1.472
 3906SOL     OW11773   1.969   3.713   2.424
 3906SOL    HW111774   2.057   3.739   2.399
 3906SOL    HW211775   1.981   3.639   2.482
 3907SOL     OW11776   2.770   4.764   2.154
 3907SOL    HW111777   2.749   4.786   2.063
 3907SOL    HW211778   2.778   4.668   2.153
 3908SOL     OW11779   4.800   3.896   3.267
 3908SOL    HW111780   4.711   3.872   3.241
 3908SOL    HW211781   4.801   3.885   3.362
 3909SOL     OW11782   4.032   1.545   3.910
 3909SOL    HW111783   3.948   1.579   3.941
 3909SOL    HW211784   4.066   1.615   3.854
 3910SOL     OW11785   1.735   1.468   3.446
 3910SOL    HW111786   1.725   1.375   3.425
 3910SOL    HW211787   1.701   1.514   3.370
 3911SOL     OW11788   1.530   2.909   4.257
 3911SOL    HW111789   1.575   2.836   4.215
 3911SOL    HW211790   1.598   2.953   4.308
 3912SOL     OW11791   0.409   3.638   0.940
 3912SOL    HW111792   0.362   3.630   1.023
 3912SOL    HW211793   0.365   3.577   0.880
 3913SOL     OW11794   3.974   3.845   0.075
 3913SOL    HW111795   3.930   3.781   0.131
 3913SOL    HW211796   3.948   3.930   0.110
 3914SOL     OW11797   2.032   1.729   2.131
 3914SOL    HW111798   2.014   1.765   2.217
 3914SOL    HW211799   1.965   1.767   2.074
 3915SOL     OW11800   0.727   1.670   4.024
 3915SOL    HW111801   0.748   1.582   4.055
 3915SOL    HW211802   0.696   1.716   4.102
 3916SOL     OW11803   0.929   4.135   1.061
 3916SOL    HW111804   0.917   4.044   1.087
 3916SOL    HW211805   0.909   4.137   0.968
 3917SOL     OW11806   0.536   2.184   2.408
 3917SOL    HW111807   0.618   2.234   2.406
 3917SOL    HW211808   0.469   2.248   2.430
 3918SOL     OW11809   2.418   2.173   4.797
 3918SOL    HW111810   2.345   2.130   4.752
 3918SOL    HW211811   2.481   2.103   4.813
 3919SOL     OW11812   2.910   0.924   3.303
 3919SOL    HW111813   2.963   1.003   3.318
 3919SOL    HW211814   2.916   0.875   3.385
 3920SOL     OW11815   3.770   3.517   1.527
 3920SOL    HW111816   3.741   3.528   1.617
 3920SOL    HW211817   3.841   3.580   1.517
 3921SOL     OW11818   2.346   2.846   2.259
 3921SOL    HW111819   2.261   2.875   2.225
 3921SOL    HW211820   2.324   2.780   2.324
 3922SOL     OW11821   3.320   2.622   2.222
 3922SOL    HW111822   3.398   2.600   2.274
 3922SOL    HW211823   3.261   2.664   2.284
 3923SOL     OW11824   3.855   4.689   1.032
 3923SOL    HW111825   3.831   4.775   1.066
 3923SOL    HW211826   3.886   4.706   0.943
 3924SOL     OW11827   0.902   4.256   0.460
 3924SOL    HW111828   0.827   4.228   0.512
 3924SOL    HW211829   0.864   4.287   0.378
 3925SOL     OW11830   4.878   4.172   2.424
 3925SOL    HW111831   4.898   4.079   2.437
 3925SOL    HW211832   4.877   4.209   2.512
 3926SOL     OW11833   3.455   0.787   1.802
 3926SOL    HW111834   3.522   0.747   1.746
 3926SOL    HW211835   3.381   0.726   1.797
 3927SOL     OW11836   0.749   1.639   4.720
 3927SOL    HW111837   0.798   1.618   4.640
 3927SOL    HW211838   0.816   1.669   4.782
 3928SOL     OW11839   4.350   2.487   3.460
 3928SOL    HW111840   4.292   2.550   3.504
 3928SOL    HW211841   4.291   2.422   3.423
 3929SOL     OW11842   3.452   2.928   2.155
 3929SOL    HW111843   3.480   2.996   2.216
 3929SOL    HW211844   3.500   2.947   2.074
 3930SOL     OW11845   4.012   0.124   2.022
 3930SOL    HW111846   4.029   0.034   1.996
 3930SOL    HW211847   3.928   0.121   2.067
 3931SOL     OW11848   0.614   0.582   3.802
 3931SOL    HW111849   0.640   0.534   3.723
 3931SOL    HW211850   0.520   0.598   3.790
 3932SOL     OW11851   0.034   4.882   3.645
 3932SOL    HW111852   0.114   4.831   3.635
 3932SOL    HW211853   4.975   4.856   3.730
 3933SOL     OW11854   1.542   4.542   0.562
 3933SOL    HW111855   1.562   4.587   0.644
 3933SOL    HW211856   1.547   4.449   0.584
 3934SOL     OW11857   4.894   4.804   4.184
 3934SOL    HW111858   4.807   4.766   4.171
 3934SOL    HW211859   4.932   4.755   4.257
 3935SOL     OW11860   0.072   2.640   2.686
 3935SOL    HW111861   4.972   2.683   2.646
 3935SOL    HW211862   0.105   2.703   2.749
 3936SOL     OW11863   2.321   2.827   3.886
 3936SOL    HW111864   2.393   2.888   3.903
 3936SOL    HW211865   2.242   2.881   3.891
 3937SOL     OW11866   1.198   2.324   0.029
 3937SOL    HW111867   1.119   2.306   4.953
 3937SOL    HW211868   1.167   2.379   0.100
 3938SOL     OW11869   0.934   4.612   3.736
 3938SOL    HW111870   0.929   4.633   3.829
 3938SOL    HW211871   0.984   4.530   3.732
 3939SOL     OW11872   3.760   4.530   2.114
 3939SOL    HW111873   3.775   4.548   2.021
 3939SOL    HW211874   3.728   4.440   2.117
 3940SOL     OW11875   1.740   0.167   1.142
 3940SOL    HW111876   1.709   0.255   1.121
 3940SOL    HW211877   1.807   0.181   1.210
 3941SOL     OW11878   4.950   3.946   2.913
 3941SOL    HW111879   4.958   3.937   3.008
 3941SOL    HW211880   0.051   3.996   2.887
 3942SOL     OW11881   4.174   0.782   0.843
 3942SOL    HW111882   4.182   0.725   0.919
 3942SOL    HW211883   4.250   0.841   0.850
 3943SOL     OW11884   2.289   4.083   2.639
 3943SOL    HW111885   2.194   4.090   2.651
 3943SOL    HW211886   2.324   4.161   2.682
 3944SOL     OW11887   2.046   0.590   4.289
 3944SOL    HW111888   2.027   0.625   4.376
 3944SOL    HW211889   2.091   0.661   4.244
 3945SOL     OW11890   2.456   4.421   1.738
 3945SOL    HW111891   2.474   4.469   1.818
 3945SOL    HW211892   2.365   4.442   1.717
 3946SOL     OW11893   1.892   1.013   2.482
 3946SOL    HW111894   1.900   1.075   2.410
 3946SOL    HW211895   1.976   0.967   2.484
 3947SOL     OW11896   2.924   3.141   1.035
 3947SOL    HW111897   2.958   3.199   1.104
 3947SOL    HW211898   3.002   3.095   1.003
 3948SOL     OW11899   3.157   3.095   4.523
 3948SOL    HW111900   3.233   3.055   4.480
 3948SOL    HW211901   3.137   3.172   4.471
 3949SOL     OW11902   0.276   0.607   4.480
 3949SOL    HW111903   0.293   0.700   4.467
 3949SOL    HW211904   0.236   0.602   4.567
 3950SOL     OW11905   4.219   2.244   0.618
 3950SOL    HW111906   4.234   2.176   0.683
 3950SOL    HW211907   4.129   2.274   0.634
 3951SOL     OW11908   0.569   3.062   0.748
 3951SOL    HW111909   0.609   2.975   0.755
 3951SOL    HW211910   0.540   3.082   0.837
 3952SOL     OW11911   1.852   4.962   3.397
 3952SOL    HW111912   1.858   4.891   3.461
 3952SOL    HW211913   1.887   4.924   3.316
 3953SOL     OW11914   2.167   2.913   2.571
 3953SOL    HW111915   2.166   2.881   2.661
 3953SOL    HW211916   2.259   2.937   2.555
 3954SOL     OW11917   0.957   3.007   2.696
 3954SOL    HW111918   0.971   2.944   2.625
 3954SOL    HW211919   1.012   2.976   2.767
 3955SOL     OW11920   3.358   3.070   2.561
 3955SOL    HW111921   3.389   3.156   2.588
 3955SOL    HW211922   3.428   3.010   2.587
 3956SOL     OW11923   1.393   0.039   1.253
 3956SOL    HW111924   1.436   0.058   1.169
 3956SOL    HW211925   1.329   4.947   1.232
 3957SOL     OW11926   4.019   1.527   3.310
 3957SOL    HW111927   3.964   1.530   3.389
 3957SOL    HW211928   4.095   1.476   3.336
 3958SOL     OW11929   1.935   3.582   2.194
 3958SOL    HW111930   1.922   3.493   2.228
 3958SOL    HW211931   1.931   3.638   2.271
 3959SOL     OW11932   4.078   1.045   1.686
 3959SOL    HW111933   4.034   1.126   1.659
 3959SOL    HW211934   4.010   0.978   1.680
 3960SOL     OW11935   3.015   1.929   1.792
 3960SOL    HW111936   2.989   1.858   1.734
 3960SOL    HW211937   2.964   2.004   1.763
 3961SOL     OW11938   2.152   3.443   0.606
 3961SOL    HW111939   2.187   3.481   0.525
 3961SOL    HW211940   2.197   3.359   0.613
 3962SOL     OW11941   3.428   1.648   3.933
 3962SOL    HW111942   3.425   1.558   3.965
 3962SOL    HW211943   3.447   1.640   3.840
 3963SOL     OW11944   0.694   4.314   0.292
 3963SOL    HW111945   0.714   4.384   0.230
 3963SOL    HW211946   0.606   4.333   0.323
 3964SOL     OW11947   1.018   3.337   2.109
 3964SOL    HW111948   1.074   3.294   2.173
 3964SOL    HW211949   0.981   3.412   2.155
 3965SOL     OW11950   3.011   3.412   2.306
 3965SOL    HW111951   3.099   3.421   2.268
 3965SOL    HW211952   2.968   3.345   2.253
 3966SOL     OW11953   4.939   0.427   4.121
 3966SOL    HW111954   0.010   0.460   4.044
 3966SOL    HW211955   0.032   0.410   4.185
 3967SOL     OW11956   3.673   1.024   2.817
 3967SOL    HW111957   3.699   1.090   2.752
 3967SOL    HW211958   3.642   0.950   2.765
 3968SOL     OW11959   2.244   0.353   0.467
 3968SOL    HW111960   2.170   0.373   0.410
 3968SOL    HW211961   2.260   0.260   0.455
 3969SOL     OW11962   4.584   4.792   1.569
 3969SOL    HW111963   4.613   4.880   1.593
 3969SOL    HW211964   4.655   4.757   1.516
 3970SOL     OW11965   4.238   1.817   3.364
 3970SOL    HW111966   4.307   1.753   3.383
 3970SOL    HW211967   4.222   1.807   3.270
 3971SOL     OW11968   0.162   2.267   3.782
 3971SOL    HW111969   0.097   2.201   3.805
 3971SOL    HW211970   0.162   2.269   3.687
 3972SOL     OW11971   1.869   4.901   0.404
 3972SOL    HW111972   1.907   4.960   0.339
 3972SOL    HW211973   1.923   4.912   0.482
 3973SOL     OW11974   4.660   2.849   4.400
 3973SOL    HW111975   4.613   2.787   4.454
 3973SOL    HW211976   4.723   2.890   4.459
 3974SOL     OW11977   0.332   2.891   4.474
 3974SOL    HW111978   0.334   2.796   4.490
 3974SOL    HW211979   0.250   2.905   4.427
 3975SOL     OW11980   3.212   4.282   4.495
 3975SOL    HW111981   3.133   4.296   4.547
 3975SOL    HW211982   3.279   4.260   4.560
 3976SOL     OW11983   0.861   1.465   0.988
 3976SOL    HW111984   0.892   1.449   1.077
 3976SOL    HW211985   0.917   1.412   0.932
 3977SOL     OW11986   2.293   1.603   1.172
 3977SOL    HW111987   2.282   1.520   1.217
 3977SOL    HW211988   2.338   1.659   1.236
 3978SOL     OW11989   4.668   4.190   4.174
 3978SOL    HW111990   4.585   4.236   4.191
 3978SOL    HW211991   4.699   4.228   4.092
 3979SOL     OW11992   0.698   0.970   4.644
 3979SOL    HW111993   0.613   0.983   4.686
 3979SOL    HW211994   0.677   0.966   4.550
 3980SOL     OW11995   1.196   4.118   2.908
 3980SOL    HW111996   1.108   4.110   2.870
 3980SOL    HW211997   1.189   4.074   2.993
 3981SOL     OW11998   0.068   0.700   4.762
 3981SOL    HW111999   0.012   0.775   4.782
 3981SOL    HW212000   0.021   0.654   4.692
 3982SOL     OW12001   3.426   3.312   1.718
 3982SOL    HW112002   3.375   3.233   1.699
 3982SOL    HW212003   3.363   3.384   1.707
 3983SOL     OW12004   1.289   3.219   0.600
 3983SOL    HW112005   1.370   3.269   0.591
 3983SOL    HW212006   1.317   3.135   0.637
 3984SOL     OW12007   0.873   3.789   2.935
 3984SOL    HW112008   0.919   3.763   2.855
 3984SOL    HW212009   0.805   3.722   2.946
 3985SOL     OW12010   0.026   4.902   4.775
 3985SOL    HW112011   0.084   4.827   4.758
 3985SOL    HW212012   4.956   4.879   4.856
 3986SOL     OW12013   3.263   0.258   0.667
 3986SOL    HW112014   3.280   0.224   0.754
 3986SOL    HW212015   3.344   0.241   0.619
 3987SOL     OW12016   3.323   2.981   3.677
 3987SOL    HW112017   3.326   2.888   3.655
 3987SOL    HW212018   3.375   2.988   3.757
 3988SOL     OW12019   1.803   0.240   4.549
 3988SOL    HW112020   1.816   0.335   4.548
 3988SOL    HW212021   1.879   0.205   4.502
 3989SOL     OW12022   4.232   4.217   2.618
 3989SOL    HW112023   4.323   4.192   2.632
 3989SOL    HW212024   4.236   4.309   2.594
 3990SOL     OW12025   0.159   1.534   3.431
 3990SOL    HW112026   0.140   1.599   3.363
 3990SOL    HW212027   0.227   1.574   3.485
 3991SOL     OW12028   0.296   4.007   3.808
 3991SOL    HW112029   0.287   3.973   3.897
 3991SOL    HW212030   0.372   3.961   3.772
 3992SOL     OW12031   3.109   2.986   0.342
 3992SOL    HW112032   3.064   3.063   0.377
 3992SOL    HW212033   3.043   2.917   0.343
 3993SOL     OW12034   2.593   1.994   3.389
 3993SOL    HW112035   2.606   1.912   3.342
 3993SOL    HW212036   2.532   2.044   3.335
 3994SOL     OW12037   2.342   2.227   1.318
 3994SOL    HW112038   2.307   2.295   1.375
 3994SOL    HW212039   2.423   2.265   1.284
 3995SOL     OW12040   4.418   4.402   3.145
 3995SOL    HW112041   4.432   4.426   3.053
 3995SOL    HW212042   4.440   4.482   3.193
 3996SOL     OW12043   2.828   2.609   4.852
 3996SOL    HW112044   2.774   2.565   4.786
 3996SOL    HW212045   2.820   2.554   4.930
 3997SOL     OW12046   2.423   1.995   0.352
 3997SOL    HW112047   2.347   1.938   0.346
 3997SOL    HW212048   2.444   2.017   0.261
 3998SOL     OW12049   2.877   4.910   0.091
 3998SOL    HW112050   2.785   4.884   0.082
 3998SOL    HW212051   2.925   4.845   0.039
 3999SOL     OW12052   3.985   1.153   4.428
 3999SOL    HW112053   3.994   1.063   4.397
 3999SOL    HW212054   4.075   1.181   4.445
 4000SOL     OW12055   1.488   1.879   4.117
 4000SOL    HW112056   1.525   1.910   4.034
 4000SOL    HW212057   1.454   1.958   4.159
 4001SOL     OW12058   1.247   4.954   2.949
 4001SOL    HW112059   1.225   4.871   2.907
 4001SOL    HW212060   1.286   4.929   3.033
 4002SOL     OW12061   1.395   4.576   4.638
 4002SOL    HW112062   1.342   4.587   4.559
 4002SOL    HW212063   1.465   4.641   4.630
 4003SOL     OW12064   4.605   2.372   0.801
 4003SOL    HW112065   4.662   2.295   0.803
 4003SOL    HW212066   4.644   2.432   0.865
 4004SOL     OW12067   1.267   2.422   2.615
 4004SOL    HW112068   1.317   2.350   2.653
 4004SOL    HW212069   1.319   2.449   2.538
 4005SOL     OW12070   2.585   2.751   2.183
 4005SOL    HW112071   2.514   2.805   2.218
 4005SOL    HW212072   2.647   2.743   2.255
 4006SOL     OW12073   1.388   3.451   1.485
 4006SOL    HW112074   1.380   3.510   1.411
 4006SOL    HW212075   1.458   3.390   1.460
 4007SOL     OW12076   0.765   2.265   0.795
 4007SOL    HW112077   0.795   2.276   0.885
 4007SOL    HW212078   0.689   2.207   0.802
 4008SOL     OW12079   1.414   2.963   0.649
 4008SOL    HW112080   1.425   2.974   0.554
 4008SOL    HW212081   1.493   3.001   0.686
 4009SOL     OW12082   4.338   1.080   4.962
 4009SOL    HW112083   4.384   1.153   4.921
 4009SOL    HW212084   4.336   1.101   0.079
 4010SOL     OW12085   2.472   2.763   2.507
 4010SOL    HW112086   2.459   2.720   2.591
 4010SOL    HW212087   2.566   2.756   2.490
 4011SOL     OW12088   4.784   1.023   2.238
 4011SOL    HW112089   4.692   1.048   2.233
 4011SOL    HW212090   4.802   0.979   2.156
 4012SOL     OW12091   2.520   0.639   0.236
 4012SOL    HW112092   2.502   0.592   0.154
 4012SOL    HW212093   2.459   0.713   0.236
 4013SOL     OW12094   0.127   1.712   4.246
 4013SOL    HW112095   0.134   1.753   4.332
 4013SOL    HW212096   0.141   1.618   4.262
 4014SOL     OW12097   3.780   4.370   1.667
 4014SOL    HW112098   3.759   4.279   1.642
 4014SOL    HW212099   3.856   4.392   1.613
 4015SOL     OW12100   4.296   1.215   2.248
 4015SOL    HW112101   4.270   1.281   2.184
 4015SOL    HW212102   4.302   1.263   2.331
 4016SOL     OW12103   0.006   3.347   2.256
 4016SOL    HW112104   0.056   3.427   2.272
 4016SOL    HW212105   0.016   3.331   2.162
 4017SOL     OW12106   2.910   1.168   2.854
 4017SOL    HW112107   2.867   1.086   2.881
 4017SOL    HW212108   2.890   1.175   2.761
 4018SOL     OW12109   3.049   2.975   2.889
 4018SOL    HW112110   3.116   3.041   2.866
 4018SOL    HW212111   3.048   2.975   2.984
 4019SOL     OW12112   4.682   4.664   4.212
 4019SOL    HW112113   4.593   4.698   4.204
 4019SOL    HW212114   4.677   4.598   4.282
 4020SOL     OW12115   3.776   1.493   0.292
 4020SOL    HW112116   3.779   1.399   0.308
 4020SOL    HW212117   3.868   1.518   0.278
 4021SOL     OW12118   0.738   4.028   0.254
 4021SOL    HW112119   0.762   4.121   0.251
 4021SOL    HW212120   0.664   4.025   0.316
 4022SOL     OW12121   2.264   2.441   1.105
 4022SOL    HW112122   2.340   2.420   1.160
 4022SOL    HW212123   2.254   2.536   1.113
 4023SOL     OW12124   3.964   0.852   2.832
 4023SOL    HW112125   4.026   0.823   2.765
 4023SOL    HW212126   3.906   0.776   2.845
 4024SOL     OW12127   4.158   1.739   4.973
 4024SOL    HW112128   4.247   1.703   4.965
 4024SOL    HW212129   4.102   1.661   4.972
 4025SOL     OW12130   3.523   3.754   2.085
 4025SOL    HW112131   3.481   3.676   2.122
 4025SOL    HW212132   3.451   3.812   2.062
 4026SOL     OW12133   0.007   4.072   0.558
 4026SOL    HW112134   0.023   4.093   0.466
 4026SOL    HW212135   0.075   4.009   0.581
 4027SOL     OW12136   0.348   2.043   3.576
 4027SOL    HW112137   0.253   2.051   3.580
 4027SOL    HW212138   0.380   2.099   3.647
 4028SOL     OW12139   2.009   2.932   3.326
 4028SOL    HW112140   1.929   2.915   3.276
 4028SOL    HW212141   2.069   2.972   3.264
 4029SOL     OW12142   4.117   3.800   4.824
 4029SOL    HW112143   4.068   3.819   4.903
 4029SOL    HW212144   4.051   3.772   4.761
 4030SOL     OW12145   2.140   3.924   3.488
 4030SOL    HW112146   2.179   4.000   3.530
 4030SOL    HW212147   2.061   3.906   3.539
 4031SOL     OW12148   4.901   3.846   2.674
 4031SOL    HW112149   4.911   3.883   2.761
 4031SOL    HW212150   4.819   3.883   2.641
 4032SOL     OW12151   1.760   4.564   0.794
 4032SOL    HW112152   1.789   4.515   0.870
 4032SOL    HW212153   1.716   4.641   0.831
 4033NA      NA12154   4.216   2.072   0.426
   4.97607   4.97607   4.97607
