Protein in water
12154
    1DT5    H5T    1   3.172   2.714   4.110  0.7695 -1.3009  0.1703
    1DT5    O5'    2   3.157   2.668   4.027  0.2097 -0.1686 -0.3705
    1DT5    C5'    3   3.025   2.606   4.022 -0.6216 -1.4763  0.6286
    1DT5   H5'1    4   3.014   2.539   4.108  0.1427 -3.0412 -0.4362
    1DT5   H5'2    5   3.017   2.540   3.935 -2.0225  0.0686 -0.4605
    1DT5    C4'    6   2.910   2.708   4.022 -0.2413 -0.4369 -0.6187
    1DT5    H4'    7   2.813   2.658   4.022 -0.3141 -0.3030  0.1788
    1DT5    O4'    8   2.917   2.796   4.129  0.4009  0.2461  0.1716
    1DT5    C1'    9   2.884   2.930   4.101  0.6467 -0.0821  0.4010
    1DT5    H1'   10   2.775   2.934   4.100  0.5711 -1.0162 -1.7180
    1DT5     N1   11   2.945   3.021   4.204 -0.9648 -0.1180 -0.3789
    1DT5     C6   12   3.081   3.047   4.212 -0.4573 -0.5295 -0.1776
    1DT5     H6   13   3.155   2.988   4.161 -0.3371 -0.4024 -0.1523
    1DT5     C5   14   3.131   3.140   4.298 -0.1086  0.1293  0.4608
    1DT5     C7   15   3.276   3.157   4.314 -0.8969  0.1969 -0.0821
    1DT5    H71   16   3.327   3.082   4.254 -0.9243  0.4708 -0.4538
    1DT5    H72   17   3.299   3.259   4.283 -2.4297  0.8879  0.9738
    1DT5    H73   18   3.305   3.132   4.416  1.4404 -3.8590 -1.5065
    1DT5     C4   19   3.039   3.211   4.387  0.5870 -0.8098  0.2622
    1DT5     O4   20   3.065   3.300   4.466 -0.5779 -0.6518 -0.1499
    1DT5     N3   21   2.905   3.191   4.361 -0.2319 -0.4460 -0.0099
    1DT5     H3   22   2.841   3.244   4.419 -0.1440  1.2158 -1.3316
    1DT5     C2   23   2.853   3.090   4.283 -0.2152 -0.0175  0.4546
    1DT5     O2   24   2.729   3.068   4.286  0.0443  0.1658  0.5742
    1DT5    C3'   25   2.914   2.810   3.901  1.0457  0.4521  0.0525
    1DT5    H3'   26   2.978   2.770   3.822 -0.7367 -0.3682 -1.0357
    1DT5    C2'   27   2.946   2.943   3.961 -0.3730  1.0621  0.4930
    1DT5   H2'1   28   3.055   2.947   3.969 -0.0681 -3.2855  0.8876
    1DT5   H2'2   29   2.901   3.025   3.904 -0.1140  0.1472 -1.0627
    1DT5    O3'   30   2.780   2.804   3.846  0.0064  0.0012  0.1878
    2DT3      P   31   2.748   2.864   3.702  0.2078  0.1463  0.1819
    2DT3    O1P   32   2.680   2.764   3.616 -0.1949  0.3665 -1.0006
    2DT3    O2P   33   2.870   2.932   3.652  0.7804  0.2736  0.5753
    2DT3    O5'   34   2.647   2.984   3.739 -0.9753  0.1493  0.5741
    2DT3    C5'   35   2.533   2.958   3.825 -0.4384 -0.1584 -0.0468
    2DT3   H5'1   36   2.560   2.888   3.904 -0.3493 -0.6044 -0.4645
    2DT3   H5'2   37   2.449   2.921   3.766 -0.1635  0.6986 -1.0066
    2DT3    C4'   38   2.495   3.093   3.898 -0.0099 -0.1817  0.2227
    2DT3    H4'   39   2.404   3.063   3.950  1.1034 -2.5486  0.9256
    2DT3    O4'   40   2.591   3.149   3.989 -0.2706  0.0413 -0.5368
    2DT3    C1'   41   2.583   3.289   3.969 -0.1215  0.2758  0.7682
    2DT3    H1'   42   2.494   3.335   4.014 -1.0931 -1.9597  1.2438
    2DT3     N1   43   2.703   3.351   4.021  0.2162  0.2167 -0.6295
    2DT3     C6   44   2.833   3.314   3.985 -0.4387  0.3009  0.0102
    2DT3     H6   45   2.843   3.237   3.910  1.4788  0.6519 -0.1363
    2DT3     C5   46   2.935   3.378   4.043 -0.3579 -0.3273  0.1290
    2DT3     C7   47   3.077   3.351   3.997 -0.0358  0.1068  0.6627
    2DT3    H71   48   3.141   3.328   4.083  1.1499 -0.7270 -0.4033
    2DT3    H72   49   3.070   3.262   3.935  0.0624  1.2918 -1.1088
    2DT3    H73   50   3.122   3.431   3.938 -0.2987  0.1825  0.5635
    2DT3     C4   51   2.918   3.482   4.147  0.2808 -0.5023  0.3423
    2DT3     O4   52   3.004   3.547   4.207  0.6624  0.2432  0.5480
    2DT3     N3   53   2.788   3.484   4.194  0.1979  0.6408  0.3114
    2DT3     H3   54   2.765   3.553   4.263  0.5381  2.2777 -1.1329
    2DT3     C2   55   2.681   3.434   4.136 -0.0301  0.0130  0.2645
    2DT3     O2   56   2.576   3.466   4.190  0.3011 -0.7777  0.2578
    2DT3    C3'   57   2.463   3.203   3.800  0.1602  0.5454 -0.4768
    2DT3    H3'   58   2.462   3.169   3.697 -2.4266 -1.9159  0.2258
    2DT3    C2'   59   2.568   3.310   3.823  0.2154  0.2966 -0.0872
    2DT3   H2'1   60   2.654   3.279   3.763 -0.7244  0.8716 -1.7959
    2DT3   H2'2   61   2.525   3.407   3.798 -1.7953 -0.5426 -0.0468
    2DT3    O3'   62   2.339   3.254   3.823  0.1448 -0.0036 -0.4596
    2DT3    H3T   63   2.283   3.234   3.747  1.4799  0.3863 -1.5797
    3SOL     OW   64   4.791   0.524   1.733 -0.3112 -0.4164 -0.4936
    3SOL    HW1   65   4.827   0.442   1.766 -1.8978 -1.0226 -0.1643
    3SOL    HW2   66   4.812   0.589   1.801  0.9990 -0.5132 -0.7848
    4SOL     OW   67   1.877   3.432   2.315 -0.1799  0.2354  0.0230
    4SOL    HW1   68   1.819   3.499   2.350  0.3192  0.0706  1.2102
    4SOL    HW2   69   1.877   3.447   2.220 -0.7852  1.3315  0.1822
    5SOL     OW   70   4.918   4.118   1.930  0.3509 -0.0295 -0.6315
    5SOL    HW1   71   4.973   4.108   1.852 -0.8112 -1.5963 -1.2908
    5SOL    HW2   72   4.857   4.188   1.907 -0.9546 -1.4809 -1.7565
    6SOL     OW   73   2.289   2.938   3.534  0.2859 -0.3406 -0.3162
    6SOL    HW1   74   2.242   2.946   3.617  1.1989 -1.2866  0.3135
    6SOL    HW2   75   2.317   3.028   3.514 -1.2922  0.1561 -0.4435
    7SOL     OW   76   1.167   3.388   4.614 -0.6183  0.0520 -0.8365
    7SOL    HW1   77   1.210   3.473   4.614 -1.6435  0.5846 -1.4767
    7SOL    HW2   78   1.167   3.361   4.706  2.0433 -0.5050 -0.8998
    8SOL     OW   79   1.430   3.920   0.373 -0.0101  0.4388  0.0471
    8SOL    HW1   80   1.343   3.950   0.344  1.0562  1.7502 -1.9960
    8SOL    HW2   81   1.434   3.944   0.465 -1.3822  1.4084 -0.1118
    9SOL     OW   82   1.466   3.615   3.968  0.3948 -0.1346  0.5416
    9SOL    HW1   83   1.434   3.532   4.003  0.5544 -0.8148 -0.8696
    9SOL    HW2   84   1.554   3.595   3.934  0.7966  0.8229  0.9796
   10SOL     OW   85   1.733   4.838   3.741  0.5076 -0.2941 -0.1844
   10SOL    HW1   86   1.656   4.849   3.686  0.5216  2.8159  0.2460
   10SOL    HW2   87   1.804   4.879   3.692  1.3486 -0.8434  0.5363
   11SOL     OW   88   3.446   3.064   1.562  0.2107 -0.5077 -0.4510
   11SOL    HW1   89   3.367   3.033   1.518  0.4449  0.1814 -1.3698
   11SOL    HW2   90   3.433   3.041   1.654 -1.6435  0.7506 -0.3597
   12SOL     OW   91   2.080   2.926   0.196 -0.2836  0.2691  0.5129
   12SOL    HW1   92   2.011   2.945   0.132  0.9308 -0.6273 -1.1603
   12SOL    HW2   93   2.160   2.918   0.143  1.5168  3.0554  2.5178
   13SOL     OW   94   2.780   3.263   2.066 -1.0277  0.5045 -0.3675
   13SOL    HW1   95   2.705   3.264   2.126 -0.4674  1.3184  0.3455
   13SOL    HW2   96   2.756   3.200   1.998 -1.4769 -0.8137  0.9757
   14SOL     OW   97   0.950   3.451   0.671  0.5464 -0.1564  0.4658
   14SOL    HW1   98   0.953   3.416   0.760 -0.5376  0.6973  0.8620
   14SOL    HW2   99   1.013   3.523   0.672  0.1327  0.2017  0.7006
   15SOL     OW  100   4.534   3.475   3.599 -0.5494  0.2169  0.1912
   15SOL    HW1  101   4.532   3.560   3.643 -2.3585  0.1158  0.3482
   15SOL    HW2  102   4.565   3.414   3.666 -1.2588  0.4172  0.7106
   16SOL     OW  103   4.641   3.748   3.957 -0.3206  0.6569  0.7629
   16SOL    HW1  104   4.685   3.833   3.955 -1.1586  1.0933  0.8016
   16SOL    HW2  105   4.614   3.732   3.867  2.0993 -0.7941  0.1963
   17SOL     OW  106   2.397   0.889   0.960  0.6749 -0.2330 -0.1757
   17SOL    HW1  107   2.393   0.981   0.987 -0.6048 -0.5074  0.6603
   17SOL    HW2  108   2.462   0.849   1.018 -0.0253 -0.2168  0.6371
   18SOL     OW  109   1.317   2.105   0.194  0.4601  0.3951  0.3325
   18SOL    HW1  110   1.222   2.094   0.193  0.7890 -4.1271  0.1466
   18SOL    HW2  111   1.336   2.153   0.114 -1.5545 -0.7148 -0.9012
   19SOL     OW  112   4.342   1.145   1.996  0.3427  0.9597 -0.1038
   19SOL    HW1  113   4.269   1.187   2.041  0.1336  0.6550 -0.1516
   19SOL    HW2  114   4.354   1.062   2.043  0.1853  0.6838 -0.5420
   20SOL     OW  115   0.833   2.635   1.555 -0.3779  0.4310  0.1962
   20SOL    HW1  116   0.830   2.676   1.469 -1.3554  0.0731  0.0481
   20SOL    HW2  117   0.903   2.570   1.548  0.8141  1.6712  0.2676
   21SOL     OW  118   1.897   3.464   2.037 -0.5791 -0.4679  0.0423
   21SOL    HW1  119   1.893   3.402   1.965 -2.6202  0.7012 -0.9474
   21SOL    HW2  120   1.973   3.519   2.018 -0.8076 -0.4876 -0.9808
   22SOL     OW  121   0.373   1.982   0.932 -0.1875  0.0413 -0.2401
   22SOL    HW1  122   0.442   1.971   0.998 -0.2400 -0.7401 -0.3067
   22SOL    HW2  123   0.316   1.906   0.945 -1.1022  0.7359 -0.1144
   23SOL     OW  124   1.739   2.232   3.151 -0.1908  0.0949 -0.1485
   23SOL    HW1  125   1.712   2.160   3.208 -0.3615  1.5375  1.6941
   23SOL    HW2  126   1.691   2.308   3.184 -0.8506  0.9060 -2.7078
   24SOL     OW  127   3.016   0.711   4.326  0.3512 -0.3497 -0.2192
   24SOL    HW1  128   3.102   0.752   4.314 -0.4921  1.3941 -0.6147
   24SOL    HW2  129   3.035   0.617   4.330  2.1904 -0.0628 -1.0863
   25SOL     OW  130   4.765   0.737   3.278 -0.2399 -0.7904 -0.4232
   25SOL    HW1  131   4.789   0.750   3.369  0.1891  1.4219 -0.7877
   25SOL    HW2  132   4.798   0.650   3.256 -0.6927 -1.5151  1.6061
   26SOL     OW  133   1.356   2.497   0.030 -0.3402  0.2658 -0.4602
   26SOL    HW1  134   1.451   2.479   0.032 -0.7017 -2.1539 -1.0773
   26SOL    HW2  135   1.346   2.578   0.080  2.1406  1.0580 -1.0799
   27SOL     OW  136   2.372   0.651   1.793  0.3652 -0.6225 -0.3775
   27SOL    HW1  137   2.411   0.637   1.879 -1.3729 -0.0762  0.5555
   27SOL    HW2  138   2.357   0.563   1.758  0.6162 -0.8630  0.1116
   28SOL     OW  139   3.653   4.028   0.345 -0.5490 -0.1022  0.4474
   28SOL    HW1  140   3.638   4.103   0.287 -0.2861 -0.0568  0.4333
   28SOL    HW2  141   3.629   4.060   0.432 -1.7858 -0.4429  0.2503
   29SOL     OW  142   3.848   1.062   0.375  0.3644 -0.3368  0.3976
   29SOL    HW1  143   3.907   1.073   0.450  0.3829  2.0279  0.1123
   29SOL    HW2  144   3.768   1.109   0.400  0.4929  0.7910 -1.1460
   30SOL     OW  145   1.442   0.458   3.671  0.0622  0.3372  0.0928
   30SOL    HW1  146   1.399   0.406   3.604  0.8010  0.2488 -0.3245
   30SOL    HW2  147   1.527   0.416   3.683  1.0534  1.9313 -0.9089
   31SOL     OW  148   1.026   0.682   2.033  0.2028  0.4735 -0.2809
   31SOL    HW1  149   1.090   0.753   2.042 -0.9023  1.4762 -0.2387
   31SOL    HW2  150   0.943   0.719   2.062 -0.3195 -0.9761  0.1826
   32SOL     OW  151   2.279   2.697   1.574  0.1998  0.2876  0.3308
   32SOL    HW1  152   2.225   2.708   1.495  0.8777 -0.2326 -0.2160
   32SOL    HW2  153   2.358   2.652   1.543  1.0468  1.2239  1.0886
   33SOL     OW  154   4.848   0.943   2.461 -0.9419 -0.5243 -0.0721
   33SOL    HW1  155   4.776   0.880   2.451 -0.4120 -0.9202 -1.7719
   33SOL    HW2  156   4.816   1.023   2.420 -0.2871 -0.8465 -1.2765
   34SOL     OW  157   2.892   1.943   3.273  0.3716 -0.2966 -0.0168
   34SOL    HW1  158   2.969   1.945   3.216  0.3216  2.8340 -0.1650
   34SOL    HW2  159   2.922   1.899   3.352  1.4152 -1.6986 -1.1256
   35SOL     OW  160   2.089   2.993   4.071 -0.2784 -0.1434 -0.3132
   35SOL    HW1  161   2.151   2.922   4.088  0.0164 -0.0960 -1.1674
   35SOL    HW2  162   2.062   3.022   4.158 -1.4384 -2.1849  0.0710
   36SOL     OW  163   2.723   2.631   0.712 -0.3437 -0.4770  0.1187
   36SOL    HW1  164   2.745   2.714   0.670  1.0138 -1.0924 -0.4550
   36SOL    HW2  165   2.630   2.639   0.734  0.0355  1.6823  1.2336
   37SOL     OW  166   4.465   1.474   4.980 -0.4188 -0.3677  0.1959
   37SOL    HW1  167   4.472   1.562   5.017 -3.4023  0.0233  0.0582
   37SOL    HW2  168   4.507   1.481   4.894 -0.2557  0.7894  0.3532
   38SOL     OW  169   1.550   4.181   0.897 -0.3554  0.5354 -0.3551
   38SOL    HW1  170   1.469   4.203   0.852 -0.3502 -1.0699 -1.2257
   38SOL    HW2  171   1.573   4.094   0.864  1.7071  0.9326 -0.1111
   39SOL     OW  172   1.526   3.294   1.784  0.0281  0.8658  0.2613
   39SOL    HW1  173   1.439   3.258   1.767 -0.5927  1.8680  1.2455
   39SOL    HW2  174   1.548   3.264   1.872  0.9805  0.0755 -0.2195
   40SOL     OW  175   3.173   1.209   4.563 -0.0074 -0.2882 -0.4723
   40SOL    HW1  176   3.216   1.211   4.478  0.5383 -0.1977 -0.1992
   40SOL    HW2  177   3.139   1.119   4.570  0.0679 -0.3368 -0.7267
   41SOL     OW  178   3.782   0.816   0.351 -0.3438  0.3103  0.5565
   41SOL    HW1  179   3.795   0.773   0.435 -1.6877  2.6708  2.0858
   41SOL    HW2  180   3.820   0.903   0.362 -1.0959  0.8854 -1.0641
   42SOL     OW  181   4.430   3.705   2.602  0.4012  0.0038 -0.3367
   42SOL    HW1  182   4.409   3.615   2.576  0.9375  0.0526 -0.9452
   42SOL    HW2  183   4.503   3.730   2.545  0.2162  0.8453 -0.2051
   43SOL     OW  184   3.349   3.361   2.058  0.1649  0.3117  0.7136
   43SOL    HW1  185   3.356   3.370   2.153  1.9733  1.1124  0.5425
   43SOL    HW2  186   3.397   3.436   2.023 -1.0165  0.3845 -0.8488
   44SOL     OW  187   4.379   4.629   0.853 -0.2433 -0.1303  0.0517
   44SOL    HW1  188   4.356   4.617   0.761 -0.1188 -1.5526  0.1774
   44SOL    HW2  189   4.424   4.713   0.856 -1.2969  0.5049 -0.9784
   45SOL     OW  190   2.078   0.826   2.996 -0.1932  0.4144  0.0979
   45SOL    HW1  191   2.087   0.835   3.091 -0.4915  0.1400  0.1523
   45SOL    HW2  192   2.164   0.851   2.962  0.7169 -1.7512  0.5870
   46SOL     OW  193   0.727   1.362   2.103  0.4385 -0.1467 -0.3636
   46SOL    HW1  194   0.795   1.342   2.039  0.9907  1.0476 -0.1633
   46SOL    HW2  195   0.650   1.313   2.072  0.6198  0.5779 -2.0846
   47SOL     OW  196   4.201   3.134   3.937  0.0950 -0.2535  0.5033
   47SOL    HW1  197   4.118   3.131   3.890  0.0840  0.3128  0.4887
   47SOL    HW2  198   4.262   3.173   3.874 -0.6750  3.9023  2.0629
   48SOL     OW  199   4.800   3.966   4.742 -0.8493  0.4405 -0.5395
   48SOL    HW1  200   4.823   4.046   4.789  0.8710 -0.8181  0.9208
   48SOL    HW2  201   4.845   3.974   4.658 -1.4992  1.4013 -0.8143
   49SOL     OW  202   1.924   4.325   3.696  0.1955  0.4161 -0.1204
   49SOL    HW1  203   1.934   4.236   3.663 -0.3706 -0.2661  1.4386
   49SOL    HW2  204   1.864   4.367   3.635  0.2102 -0.3780 -0.6886
   50SOL     OW  205   4.509   3.065   3.573  0.3734 -0.5642  0.6136
   50SOL    HW1  206   4.464   3.064   3.657 -0.1292 -0.1951  0.3560
   50SOL    HW2  207   4.534   3.156   3.560  0.2410 -0.5746  0.2598
   51SOL     OW  208   4.796   1.683   4.609 -0.1341  0.1002  0.0657
   51SOL    HW1  209   4.877   1.641   4.579  1.5445  1.3021  2.5570
   51SOL    HW2  210   4.746   1.699   4.529  1.3142 -2.1405 -1.4208
   52SOL     OW  211   2.041   0.374   4.962 -0.5595 -0.1465  0.7555
   52SOL    HW1  212   2.070   0.405   5.048 -2.8339 -1.1144  1.9663
   52SOL    HW2  213   2.110   0.402   4.902 -0.3601  3.3533  2.3701
   53SOL     OW  214   4.548   2.707   0.151  0.3463 -0.2256 -0.7965
   53SOL    HW1  215   4.506   2.627   0.121  0.1023 -0.6893  0.6918
   53SOL    HW2  216   4.476   2.760   0.186  0.6684  0.1170 -0.6459
   54SOL     OW  217   0.121   4.292   0.396  1.1531  0.1458 -0.2577
   54SOL    HW1  218   0.123   4.253   0.309 -1.3931  0.3870 -0.5055
   54SOL    HW2  219   0.045   4.251   0.439  1.1063  1.5548  1.0850
   55SOL     OW  220   4.133   4.010   2.205 -0.4717 -0.0359 -0.7523
   55SOL    HW1  221   4.125   4.086   2.147 -0.5616  1.5122  1.1912
   55SOL    HW2  222   4.217   3.971   2.182  0.0443  1.2399 -1.1427
   56SOL     OW  223   0.790   0.455   4.985  0.8631  0.0271  0.2402
   56SOL    HW1  224   0.860   0.424   4.928 -0.8673 -1.6627 -1.1092
   56SOL    HW2  225   0.736   0.509   4.929  0.7292  0.8026  1.0995
   57SOL     OW  226   4.163   2.838   0.915 -0.1549 -0.1598 -0.3008
   57SOL    HW1  227   4.108   2.844   0.994 -0.4389  2.1414 -0.6245
   57SOL    HW2  228   4.240   2.891   0.935  0.4225 -0.6923 -1.0699
   58SOL     OW  229   0.531   3.276   3.108 -0.0420  0.1643  0.0178
   58SOL    HW1  230   0.485   3.289   3.191  0.8590  0.5893  0.4716
   58SOL    HW2  231   0.461   3.262   3.044 -0.7605 -0.0032  0.8127
   59SOL     OW  232   1.023   1.521   3.420  0.3337 -0.2140  0.4986
   59SOL    HW1  233   0.945   1.512   3.476 -0.7715 -1.2074 -1.1348
   59SOL    HW2  234   1.071   1.440   3.432  0.3117 -0.2539  0.3101
   60SOL     OW  235   0.399   4.736   0.757 -0.0868  0.1910 -0.5528
   60SOL    HW1  236   0.471   4.708   0.701 -0.8053 -1.0436 -0.9148
   60SOL    HW2  237   0.331   4.669   0.743 -0.7606  0.5528  0.8385
   61SOL     OW  238   4.725   0.109   0.540  0.0927 -1.1021 -0.0239
   61SOL    HW1  239   4.679   0.089   0.459 -0.8130 -1.3195  0.5319
   61SOL    HW2  240   4.752   0.201   0.530 -0.3500 -1.0091 -0.4137
   62SOL     OW  241   0.317   2.513   0.830 -0.5151 -0.2975 -0.4203
   62SOL    HW1  242   0.356   2.430   0.804  0.6349  0.2090 -0.4128
   62SOL    HW2  243   0.300   2.503   0.924  1.8018  0.2200  0.1383
   63SOL     OW  244   1.621  -0.002   3.534 -0.2054 -0.0808 -0.1361
   63SOL    HW1  245   1.613   0.055   3.610 -0.6596 -0.1734 -0.1128
   63SOL    HW2  246   1.662   0.053   3.467 -1.3210  0.5174 -0.3586
   64SOL     OW  247   1.120   0.122   2.674 -0.1926  0.3227 -0.6308
   64SOL    HW1  248   1.188   0.147   2.612  0.1403 -1.6522 -1.1295
   64SOL    HW2  249   1.157   0.047   2.721 -1.0326  0.8390  0.9118
   65SOL     OW  250   1.405   1.867   3.136  0.0455  0.0807  0.5486
   65SOL    HW1  251   1.407   1.771   3.138 -2.3856 -0.0923 -0.9956
   65SOL    HW2  252   1.431   1.890   3.047 -0.3704  0.7999  0.6090
   66SOL     OW  253   2.966   3.672   3.699 -0.9514  0.3258  0.1001
   66SOL    HW1  254   3.039   3.729   3.722 -1.9394  2.3655 -1.4990
   66SOL    HW2  255   3.007   3.589   3.674  0.7379  1.1112  0.1123
   67SOL     OW  256   3.470   0.002   1.022  0.0805 -0.0587  0.6054
   67SOL    HW1  257   3.452   0.085   0.978  3.6901  0.9426  0.6589
   67SOL    HW2  258   3.399  -0.008   1.085 -1.7408  1.7421 -1.0331
   68SOL     OW  259   0.971   0.337   4.455 -0.4201 -0.1641  0.4540
   68SOL    HW1  260   0.942   0.345   4.546 -0.4216  1.4361  0.3296
   68SOL    HW2  261   0.929   0.410   4.409  0.1326 -0.5429 -0.6915
   69SOL     OW  262   0.304   3.759   3.484  0.3989 -0.0898 -0.1057
   69SOL    HW1  263   0.297   3.785   3.576  0.6734 -0.3251 -0.0185
   69SOL    HW2  264   0.343   3.672   3.486 -0.6621 -0.5936 -0.3911
   70SOL     OW  265   4.052   0.116   3.172 -0.0585 -0.2908 -0.4879
   70SOL    HW1  266   4.062   0.074   3.086 -0.3907  0.2858 -0.8105
   70SOL    HW2  267   4.053   0.210   3.153 -1.3400 -0.1664  0.0037
   71SOL     OW  268   1.433   3.128   2.823 -0.2171  0.6320  0.4714
   71SOL    HW1  269   1.366   3.059   2.820 -0.2537  0.6559  0.7155
   71SOL    HW2  270   1.389   3.202   2.865  0.3396  0.2247  1.8290
   72SOL     OW  271   3.561   4.355   1.798  0.1480 -0.1537 -0.1473
   72SOL    HW1  272   3.480   4.310   1.775  0.9145 -1.8646  0.3998
   72SOL    HW2  273   3.578   4.413   1.723 -0.9562 -0.6162 -0.7778
   73SOL     OW  274   4.272   4.471   1.534 -0.2116  0.6892  0.4736
   73SOL    HW1  275   4.286   4.414   1.458  0.7490  2.2321 -0.5486
   73SOL    HW2  276   4.184   4.507   1.522 -1.1401 -1.0522  1.5133
   74SOL     OW  277   4.486   0.961   4.254 -0.3154 -0.0164 -0.3278
   74SOL    HW1  278   4.438   0.881   4.234  1.7262 -1.3619 -0.1831
   74SOL    HW2  279   4.494   0.961   4.349  0.1468  0.0719 -0.3627
   75SOL     OW  280   1.508   1.932   2.892  0.0489 -0.3476  0.2594
   75SOL    HW1  281   1.587   1.878   2.897 -1.0781 -2.3251 -1.4115
   75SOL    HW2  282   1.540   2.022   2.892  2.2063 -1.0556  0.8078
   76SOL     OW  283   0.735   1.265   3.605  0.3501  0.2938 -0.0605
   76SOL    HW1  284   0.756   1.234   3.517  0.6249  3.1242 -1.1048
   76SOL    HW2  285   0.763   1.357   3.605  2.1711 -0.0787  3.6437
   77SOL     OW  286   1.181   1.178   1.985  0.1946 -0.0876  0.0598
   77SOL    HW1  287   1.212   1.208   1.899  0.6099 -3.4617 -1.1238
   77SOL    HW2  288   1.250   1.206   2.046 -0.5522  3.1891 -0.4308
   78SOL     OW  289   1.093   1.333   1.681  0.5926  0.6058 -0.3918
   78SOL    HW1  290   1.151   1.258   1.673  1.8198  1.1477  2.2394
   78SOL    HW2  291   1.116   1.389   1.607  1.6189 -0.3565 -0.8240
   79SOL     OW  292   1.846   0.112   2.249 -0.0848  0.1318  0.4366
   79SOL    HW1  293   1.823   0.194   2.205 -0.8343 -0.2588  0.0866
   79SOL    HW2  294   1.814   0.123   2.339 -0.4733  0.0958  0.3021
   80SOL     OW  295   0.237   3.413   3.713  0.4733  1.0615 -0.2574
   80SOL    HW1  296   0.296   3.437   3.784  0.7506 -2.1577  0.7427
   80SOL    HW2  297   0.271   3.330   3.681 -2.6210 -0.1775 -0.6366
   81SOL     OW  298   4.915   4.869   4.019  0.1900  0.1582  0.2916
   81SOL    HW1  299   4.998   4.823   4.006  0.6321  1.1342 -0.4864
   81SOL    HW2  300   4.928   4.954   3.978 -1.1140  0.4266  0.3836
   82SOL     OW  301   4.549   4.607   0.423  0.2315 -0.0408  0.0170
   82SOL    HW1  302   4.512   4.625   0.337  0.8127 -0.6771 -0.3738
   82SOL    HW2  303   4.550   4.512   0.430  2.5101 -0.0947 -0.3209
   83SOL     OW  304   1.628   4.485   0.565  0.1115  0.3849 -0.1612
   83SOL    HW1  305   1.646   4.471   0.658 -2.1851  0.3006  0.3357
   83SOL    HW2  306   1.591   4.574   0.561 -1.9008 -0.4028 -0.5863
   84SOL     OW  307   3.512   0.252   3.703  0.0723  0.1961  0.1717
   84SOL    HW1  308   3.583   0.217   3.757  0.2854 -1.0358 -0.8754
   84SOL    HW2  309   3.538   0.234   3.613 -1.2980  0.2542 -0.2641
   85SOL     OW  310   0.241   2.051   2.110  0.0183 -0.0315 -0.1416
   85SOL    HW1  311   0.228   1.966   2.153 -1.6436  1.0051  1.5490
   85SOL    HW2  312   0.335   2.068   2.119 -0.0029 -0.6243  1.7151
   86SOL     OW  313   4.534   4.854   2.907  0.4912  0.3142 -0.0328
   86SOL    HW1  314   4.477   4.780   2.926 -0.9470  1.1237 -0.9645
   86SOL    HW2  315   4.474   4.929   2.898  1.9069  1.6658  1.1377
   87SOL     OW  316   0.440   3.612   4.773 -0.2876 -0.4904 -0.5964
   87SOL    HW1  317   0.504   3.671   4.735 -0.5387 -0.3988 -0.8855
   87SOL    HW2  318   0.378   3.595   4.702 -0.2292 -1.0840 -0.5151
   88SOL     OW  319   2.885   1.560   0.042  0.1788  0.2060  0.1996
   88SOL    HW1  320   2.870   1.495  -0.026 -0.8469  0.4544  0.1660
   88SOL    HW2  321   2.806   1.615   0.041  0.6557  0.9321  0.7938
   89SOL     OW  322   0.187   4.101   3.142  0.7033  0.0284 -0.5051
   89SOL    HW1  323   0.216   4.173   3.086  0.0372 -2.0867 -3.8563
   89SOL    HW2  324   0.127   4.050   3.087 -2.3376 -0.7446  3.1276
   90SOL     OW  325   0.204   4.213   0.128  0.3797  0.8510 -0.2697
   90SOL    HW1  326   0.208   4.126   0.087  0.5530  0.6277  0.2219
   90SOL    HW2  327   0.280   4.259   0.093 -0.7881  1.5041 -2.0930
   91SOL     OW  328   0.694   4.887   1.288 -0.0676 -0.1239  0.7918
   91SOL    HW1  329   0.665   4.805   1.329 -0.2580 -0.7059 -0.4546
   91SOL    HW2  330   0.760   4.860   1.225 -0.3896  0.6329  0.1074
   92SOL     OW  331   0.239   3.467   0.738  0.0952  0.1104 -0.1447
   92SOL    HW1  332   0.213   3.547   0.693 -0.2262 -0.0409 -0.2340
   92SOL    HW2  333   0.239   3.400   0.669  1.6650  0.2833 -0.3542
   93SOL     OW  334   4.272   4.808   4.789  0.3318  0.0773 -0.2535
   93SOL    HW1  335   4.184   4.809   4.750 -0.0838  0.8641  0.6551
   93SOL    HW2  336   4.328   4.847   4.722 -0.3458  1.2783 -0.1577
   94SOL     OW  337   2.408   4.204   1.373  0.3595  0.5264 -0.3962
   94SOL    HW1  338   2.327   4.174   1.415 -0.8226  3.4546 -0.3296
   94SOL    HW2  339   2.458   4.244   1.444  1.1345  0.2306 -0.7603
   95SOL     OW  340   0.389   4.628   1.881 -0.2789  0.6667 -0.7400
   95SOL    HW1  341   0.370   4.722   1.889  0.5776  0.7990 -0.1699
   95SOL    HW2  342   0.388   4.596   1.971 -0.6411  0.1011 -0.9399
   96SOL     OW  343   1.190   3.624   1.004  0.7869 -0.1547 -0.0178
   96SOL    HW1  344   1.276   3.638   1.045  1.0483 -0.6889 -0.3730
   96SOL    HW2  345   1.129   3.670   1.062  1.2560 -0.1378  0.4817
   97SOL     OW  346   0.973   1.947   4.801 -0.2771 -0.0969 -0.2178
   97SOL    HW1  347   0.935   1.984   4.722  0.4020 -0.0515 -0.5366
   97SOL    HW2  348   0.971   2.018   4.864 -0.0888  0.1195 -0.4510
   98SOL     OW  349   1.768   0.817   0.823  0.3335 -0.0515  0.4715
   98SOL    HW1  350   1.734   0.810   0.912  0.9562  0.4514  0.7556
   98SOL    HW2  351   1.798   0.907   0.815  0.3666 -0.1128 -0.2219
   99SOL     OW  352   0.949   0.680   2.329  0.3049 -0.4404  0.2107
   99SOL    HW1  353   0.916   0.740   2.396  0.4683  0.2423 -0.3117
   99SOL    HW2  354   0.929   0.722   2.246  0.9080 -0.8522 -0.1559
  100SOL     OW  355   2.795   4.705   3.508 -0.2243  0.7090  0.6687
  100SOL    HW1  356   2.797   4.751   3.424  1.0602 -0.5714 -0.0452
  100SOL    HW2  357   2.815   4.771   3.573  1.4256  1.2282 -0.3118
  101SOL     OW  358   3.306   3.003   3.644 -0.6076 -0.1984  0.1084
  101SOL    HW1  359   3.381   2.945   3.631 -0.8692 -0.6272  0.4637
  101SOL    HW2  360   3.239   2.970   3.584 -0.3254  0.5437 -0.6382
  102SOL     OW  361   1.177   3.719   2.496  0.0286  0.5446  0.4847
  102SOL    HW1  362   1.218   3.805   2.485 -1.4704  1.0623 -1.8108
  102SOL    HW2  363   1.083   3.737   2.493 -0.3315 -1.0741  1.0494
  103SOL     OW  364   2.944   1.357   2.820 -0.0355 -0.1308  0.1480
  103SOL    HW1  365   2.970   1.449   2.829  1.2990 -0.6018  1.4855
  103SOL    HW2  366   2.927   1.329   2.909  0.8568 -1.5315 -0.0976
  104SOL     OW  367   4.702   1.972   3.636  0.5500  0.2302  0.4547
  104SOL    HW1  368   4.662   1.993   3.720  0.2310 -0.8681  0.5860
  104SOL    HW2  369   4.791   2.009   3.642  0.8637 -0.6647  1.6553
  105SOL     OW  370   4.748   3.480   3.886  0.4385  0.6387  0.0516
  105SOL    HW1  371   4.819   3.504   3.826 -0.6333 -0.7403 -1.8392
  105SOL    HW2  372   4.728   3.561   3.932  3.2133  1.0813  0.6556
  106SOL     OW  373   1.328   1.405   3.654 -0.3002 -0.3117  0.5269
  106SOL    HW1  374   1.250   1.400   3.708 -0.2303 -0.0873  0.6500
  106SOL    HW2  375   1.401   1.399   3.716 -0.2159 -1.0637  0.3621
  107SOL     OW  376   2.262   2.360   3.817 -0.9663  0.0874  0.0301
  107SOL    HW1  377   2.275   2.451   3.788 -1.1654  0.0428 -0.2077
  107SOL    HW2  378   2.173   2.339   3.788  0.3958 -1.5330 -3.6623
  108SOL     OW  379   0.930   3.888   0.711 -0.3897 -0.1804  0.5542
  108SOL    HW1  380   0.903   3.965   0.660  0.7746  0.5389  0.9855
  108SOL    HW2  381   0.872   3.889   0.786 -1.2736 -0.5107 -0.1066
  109SOL     OW  382   1.501   2.929   0.677 -0.1410 -0.1936 -0.1279
  109SOL    HW1  383   1.568   2.913   0.611 -1.6958 -0.2387 -1.7698
  109SOL    HW2  384   1.527   3.012   0.718 -0.2915  1.0262 -2.3638
  110SOL     OW  385   3.776   3.804   3.737 -0.1068 -0.1057  0.2833
  110SOL    HW1  386   3.736   3.749   3.804 -0.2048  0.3238  0.5848
  110SOL    HW2  387   3.704   3.861   3.707  0.1378  0.2742  0.4127
  111SOL     OW  388   1.442   1.010   3.904 -0.0233  0.7289 -0.1447
  111SOL    HW1  389   1.361   1.038   3.862 -0.5649  0.3291  0.6000
  111SOL    HW2  390   1.457   0.921   3.871 -0.0958  0.6603  0.0050
  112SOL     OW  391   1.522   0.213  -0.012 -0.2329 -0.5469 -0.2838
  112SOL    HW1  392   1.524   0.213   0.084  2.1247  1.0691 -0.2497
  112SOL    HW2  393   1.614   0.215  -0.039 -0.8116 -1.6918 -2.6265
  113SOL     OW  394   3.310   4.202   3.617  0.2378  0.0960  0.5016
  113SOL    HW1  395   3.402   4.231   3.622 -0.4133  2.2185  3.0567
  113SOL    HW2  396   3.310   4.116   3.660  1.0403  0.0285  0.3901
  114SOL     OW  397   0.371   2.070   1.637  0.1504 -0.0348  0.0927
  114SOL    HW1  398   0.460   2.086   1.668 -0.0162 -0.1841  0.6633
  114SOL    HW2  399   0.319   2.140   1.678  0.6771  2.9723 -3.7937
  115SOL     OW  400   2.423   3.671   1.044  0.0585  0.1561 -0.6510
  115SOL    HW1  401   2.416   3.651   1.137 -1.6230 -0.9961 -0.9751
  115SOL    HW2  402   2.496   3.617   1.013  2.8413  2.9142  0.4972
  116SOL     OW  403   2.186   3.506   1.189 -0.5706 -0.5654  0.1583
  116SOL    HW1  404   2.228   3.437   1.138  0.3664 -0.8831  1.3287
  116SOL    HW2  405   2.119   3.542   1.130  1.1801 -0.1588 -1.6944
  117SOL     OW  406   4.054   2.823   3.380 -0.7658 -0.3494 -0.0314
  117SOL    HW1  407   4.112   2.747   3.383  0.9712  0.8386 -1.1558
  117SOL    HW2  408   3.999   2.808   3.303  0.5603  0.1514 -1.1121
  118SOL     OW  409   3.382   4.446   0.253 -0.0462 -0.6040 -0.1789
  118SOL    HW1  410   3.444   4.405   0.192 -0.2020 -1.0736 -0.0254
  118SOL    HW2  411   3.437   4.500   0.310  0.4875 -2.4822  1.1804
  119SOL     OW  412   0.929   4.327   1.413 -0.3417  0.1038  1.0357
  119SOL    HW1  413   1.009   4.319   1.362 -0.3242 -1.3320  1.2572
  119SOL    HW2  414   0.879   4.396   1.369  1.0809  1.1737  1.0120
  120SOL     OW  415   4.030   0.250   0.478  0.4018 -0.8555 -0.1019
  120SOL    HW1  416   4.011   0.339   0.446  0.3516 -0.4279  1.0721
  120SOL    HW2  417   4.032   0.196   0.399  1.7870  0.4282 -1.0077
  121SOL     OW  418   4.009   2.983   3.016  0.0081  0.1444  0.1558
  121SOL    HW1  419   4.061   3.038   3.075 -0.5157 -0.1809  0.9246
  121SOL    HW2  420   3.945   3.043   2.979  0.9594  0.5708 -0.8707
  122SOL     OW  421   3.998   0.580   3.383 -0.2051 -0.4385 -0.5325
  122SOL    HW1  422   3.996   0.669   3.419 -0.7145 -0.1805 -1.1652
  122SOL    HW2  423   4.084   0.572   3.342  0.1867 -0.5593  0.2861
  123SOL     OW  424   2.743   1.414   3.518 -0.0554  0.2945  0.3824
  123SOL    HW1  425   2.836   1.425   3.496  0.1399  0.2109  1.1087
  123SOL    HW2  426   2.741   1.422   3.614 -1.0006  1.7633  0.2774
  124SOL     OW  427   1.224   3.291   2.318  0.1741  0.4053 -0.6202
  124SOL    HW1  428   1.183   3.322   2.238 -2.1606  2.3581  1.1582
  124SOL    HW2  429   1.259   3.370   2.359  1.1502 -0.5165  0.3919
  125SOL     OW  430   0.605   4.698   2.512  0.0646 -0.1283  0.5013
  125SOL    HW1  431   0.692   4.692   2.551 -0.4248 -0.5441  1.5595
  125SOL    HW2  432   0.603   4.785   2.472  1.6764 -0.8678 -1.3560
  126SOL     OW  433   3.610   0.610   1.673  0.2201  0.4896  0.0593
  126SOL    HW1  434   3.532   0.653   1.707 -0.1284 -0.4945  0.5288
  126SOL    HW2  435   3.675   0.679   1.668 -0.5043  1.1981  0.2240
  127SOL     OW  436   2.470   2.602   2.093  0.2723 -0.4763 -0.4026
  127SOL    HW1  437   2.431   2.683   2.126  0.6894 -0.5634  0.3418
  127SOL    HW2  438   2.452   2.603   2.000  0.9762  0.8840 -0.5566
  128SOL     OW  439   4.028   3.258   1.648 -0.0259 -0.1703 -0.3607
  128SOL    HW1  440   4.092   3.247   1.717 -1.8225  0.4593  1.5084
  128SOL    HW2  441   3.960   3.314   1.686 -1.4683 -0.4165 -2.3758
  129SOL     OW  442   2.738   3.184   3.200 -0.3394  0.0144  0.3117
  129SOL    HW1  443   2.726   3.203   3.293 -1.0826 -0.2933  0.2847
  129SOL    HW2  444   2.760   3.091   3.197  3.0534  0.7033  0.4207
  130SOL     OW  445   3.786   4.217   1.505 -0.3726 -0.0930 -0.1991
  130SOL    HW1  446   3.744   4.222   1.419  0.9272  3.4439 -0.7823
  130SOL    HW2  447   3.876   4.193   1.486 -0.6477 -1.7937  0.4867
  131SOL     OW  448   4.069   1.254   3.775  0.5397 -0.1230  0.0498
  131SOL    HW1  449   4.144   1.272   3.831 -0.6946  2.6482  1.0449
  131SOL    HW2  450   4.057   1.336   3.725 -0.6823 -1.1679 -1.4692
  132SOL     OW  451   1.079   0.205   3.278 -0.0526 -0.2352  0.4160
  132SOL    HW1  452   1.026   0.284   3.288 -0.4897 -0.5377  0.5056
  132SOL    HW2  453   1.024   0.145   3.228  0.9516  0.1471 -1.2189
  133SOL     OW  454   2.194   1.234   3.785  0.2125  0.0689  0.2331
  133SOL    HW1  455   2.221   1.194   3.868  0.8214  1.1163  0.5515
  133SOL    HW2  456   2.276   1.249   3.738 -0.0497  0.4359 -0.1153
  134SOL     OW  457   4.757   1.252   4.919 -0.2626  0.0629  0.2743
  134SOL    HW1  458   4.803   1.289   4.843  1.1398 -0.9831  0.5689
  134SOL    HW2  459   4.698   1.187   4.882 -0.0724  0.0259  0.0342
  135SOL     OW  460   2.099   4.172   4.814  0.0613 -0.1634 -0.5868
  135SOL    HW1  461   2.059   4.092   4.848  0.1328 -0.6182 -1.5480
  135SOL    HW2  462   2.187   4.146   4.788  0.2421  0.3378 -0.4815
  136SOL     OW  463   0.705   3.843   1.260 -0.1873 -0.2787 -0.0106
  136SOL    HW1  464   0.640   3.775   1.244 -0.5898  0.2876 -0.8395
  136SOL    HW2  465   0.671   3.921   1.216  1.0936  0.0155 -0.5505
  137SOL     OW  466   1.320   2.503   0.991  0.3179 -0.5715 -0.1766
  137SOL    HW1  467   1.397   2.480   1.043 -0.1609 -1.4591  0.1613
  137SOL    HW2  468   1.340   2.589   0.956  0.8052 -0.1042  1.1907
  138SOL     OW  469   3.106   2.951   3.472  0.1964 -0.0749  0.1676
  138SOL    HW1  470   3.076   2.939   3.382  2.2812 -2.1652 -0.3767
  138SOL    HW2  471   3.042   2.903   3.525 -0.2208 -0.1339 -0.3760
  139SOL     OW  472   0.774   1.818   2.594  0.3054 -0.5182 -0.2399
  139SOL    HW1  473   0.828   1.864   2.529 -0.2904  0.3835 -0.1247
  139SOL    HW2  474   0.835   1.759   2.638  0.6916 -1.2205 -1.6784
  140SOL     OW  475   0.887   0.894   3.704 -0.1991  0.7997 -0.1615
  140SOL    HW1  476   0.966   0.905   3.651  0.8213 -1.2332  0.8202
  140SOL    HW2  477   0.855   0.806   3.681 -0.8492  0.6761  1.1220
  141SOL     OW  478   3.343   4.158   1.052  0.4389 -0.2049  0.1458
  141SOL    HW1  479   3.405   4.218   1.093 -0.7534  0.4373  1.0639
  141SOL    HW2  480   3.313   4.102   1.124 -0.6241  0.0078 -0.1195
  142SOL     OW  481   3.116   2.316   3.138 -0.0157  0.6799  0.1382
  142SOL    HW1  482   3.146   2.382   3.200  0.6343  1.4530 -0.9635
  142SOL    HW2  483   3.148   2.346   3.053  0.3068 -1.0641 -0.4017
  143SOL     OW  484   2.127   1.326   4.861  0.3993 -0.7422  0.2676
  143SOL    HW1  485   2.071   1.248   4.867 -1.3085  0.5166  2.3759
  143SOL    HW2  486   2.212   1.296   4.892  0.8372 -2.5423 -2.3503
  144SOL     OW  487   0.010   0.285   0.383 -0.9730 -0.2560 -0.1124
  144SOL    HW1  488  -0.007   0.194   0.357  0.1880 -0.7271  0.6820
  144SOL    HW2  489   0.080   0.314   0.324 -1.1373  0.0275 -0.1700
  145SOL     OW  490   0.296   3.411   2.452 -0.3387  0.6322 -0.1710
  145SOL    HW1  491   0.240   3.369   2.518  0.0700 -0.8785 -0.7305
  145SOL    HW2  492   0.324   3.493   2.493 -0.7657  0.1240  1.2086
  146SOL     OW  493   1.324   2.227   2.960 -0.2021 -0.3841 -0.4153
  146SOL    HW1  494   1.377   2.224   2.881  1.2499 -1.9361  0.5498
  146SOL    HW2  495   1.310   2.320   2.977  2.5191  0.1139 -0.5585
  147SOL     OW  496   0.463   2.707   1.877  0.4366  0.0347  0.2575
  147SOL    HW1  497   0.425   2.792   1.856  1.6448  0.3109 -0.9470
  147SOL    HW2  498   0.550   2.727   1.911  0.2379 -0.6656  1.2170
  148SOL     OW  499   2.560   4.258   4.437 -0.0447  0.3468 -0.2030
  148SOL    HW1  500   2.543   4.173   4.478 -0.8874 -0.6923 -2.4978
  148SOL    HW2  501   2.635   4.293   4.484  1.9512 -2.8293 -0.7139
  149SOL     OW  502   0.163   0.556   4.252 -0.3314  0.4974  0.4136
  149SOL    HW1  503   0.140   0.590   4.165  2.0102 -0.1502 -0.5342
  149SOL    HW2  504   0.227   0.487   4.234 -0.9355 -0.7105  2.6030
  150SOL     OW  505   4.891   0.986   2.734  0.0781 -0.3749  0.1984
  150SOL    HW1  506   4.865   0.990   2.642 -0.7447 -0.1776  0.4363
  150SOL    HW2  507   4.986   0.997   2.732  0.4128 -2.8895 -0.8236
  151SOL     OW  508   0.304   2.681   2.128  0.2226  0.4381 -0.3666
  151SOL    HW1  509   0.256   2.705   2.207  1.3140 -0.5147  0.6250
  151SOL    HW2  510   0.319   2.765   2.083 -2.3700  0.7494 -0.7852
  152SOL     OW  511   4.378   2.317   2.635  0.3939 -0.4524 -0.2351
  152SOL    HW1  512   4.424   2.251   2.686  2.1513  0.5805 -0.3902
  152SOL    HW2  513   4.392   2.291   2.544  0.9135 -0.0064 -0.2900
  153SOL     OW  514   3.944   4.219   4.467  0.0708 -0.4059 -0.6851
  153SOL    HW1  515   3.949   4.260   4.553  0.5271 -2.7052  0.4672
  153SOL    HW2  516   4.002   4.143   4.473  1.3398  0.1814 -3.5365
  154SOL     OW  517   0.603   4.086   2.053  0.5881  0.2437  0.4941
  154SOL    HW1  518   0.610   4.016   2.118  1.7896  0.5204  0.6854
  154SOL    HW2  519   0.509   4.096   2.038  0.3476 -0.5499  1.3964
  155SOL     OW  520   2.902   0.212   2.977  0.8351  1.0077 -0.8073
  155SOL    HW1  521   2.912   0.154   2.901 -0.8987  0.3235 -0.5691
  155SOL    HW2  522   2.848   0.162   3.038 -0.5890  2.7914 -0.5240
  156SOL     OW  523   1.948   2.672   2.494  0.5211 -0.5839  0.6886
  156SOL    HW1  524   1.995   2.659   2.412  0.8353  1.6095  0.4504
  156SOL    HW2  525   1.909   2.760   2.486 -1.3126 -1.2114  1.9990
  157SOL     OW  526   0.071   1.728   3.260  0.0438 -0.1429  0.5307
  157SOL    HW1  527   0.018   1.693   3.331  0.5432 -1.1217  0.4503
  157SOL    HW2  528   0.156   1.685   3.271  0.2933  0.1104 -0.3333
  158SOL     OW  529   3.059   1.810   4.307  0.0320  0.4164 -0.2045
  158SOL    HW1  530   3.015   1.879   4.357 -1.3587  0.0748 -0.9000
  158SOL    HW2  531   3.150   1.837   4.305 -0.3475  1.8438  0.1862
  159SOL     OW  532   4.299   2.763   1.631 -0.0120  0.1693 -0.0539
  159SOL    HW1  533   4.363   2.708   1.586  2.1497  0.2143  2.6786
  159SOL    HW2  534   4.325   2.852   1.608 -2.0643  0.2429 -2.5827
  160SOL     OW  535   3.170   3.949   2.872  0.1010  0.4552 -0.4175
  160SOL    HW1  536   3.154   3.938   2.778  0.4567 -0.8083 -0.3413
  160SOL    HW2  537   3.089   3.919   2.913  0.1054  0.6008 -0.3044
  161SOL     OW  538   0.843   4.650   0.044 -0.0979  0.3564 -0.3938
  161SOL    HW1  539   0.753   4.674   0.069 -1.0079 -1.5137 -1.6425
  161SOL    HW2  540   0.893   4.657   0.125 -1.7139 -0.0672  0.6900
  162SOL     OW  541   1.362   1.295   2.642  0.2499 -0.2148 -0.1177
  162SOL    HW1  542   1.419   1.226   2.675  0.5211  0.1774  0.2495
  162SOL    HW2  543   1.285   1.292   2.699  0.6662  0.3848  0.4829
  163SOL     OW  544   4.072   0.443   4.387 -0.1037  0.4171 -0.3954
  163SOL    HW1  545   4.008   0.454   4.317 -0.4772 -1.2452 -0.3573
  163SOL    HW2  546   4.157   0.436   4.342 -0.1214  1.1113 -0.5464
  164SOL     OW  547   4.720   4.405   1.068 -0.2061 -0.6335  0.1496
  164SOL    HW1  548   4.745   4.441   1.153 -1.1968  0.0845  0.1557
  164SOL    HW2  549   4.696   4.481   1.016 -0.6120 -1.1511 -0.4364
  165SOL     OW  550  -0.010   0.014   1.337  0.6207 -0.3610 -0.3465
  165SOL    HW1  551   0.081   0.017   1.309  0.1832  0.2613 -1.7814
  165SOL    HW2  552  -0.038   0.106   1.339  0.4032 -0.4208  1.4783
  166SOL     OW  553   0.302   3.577   4.501 -0.2039 -0.2433  0.1726
  166SOL    HW1  554   0.375   3.514   4.498  0.1125  0.1660 -1.1912
  166SOL    HW2  555   0.257   3.566   4.418  0.5534  2.1124 -0.6349
  167SOL     OW  556   0.168   1.335   1.040  0.0450 -0.4762  0.3072
  167SOL    HW1  557   0.138   1.328   1.131  0.9739 -1.9218  0.5383
  167SOL    HW2  558   0.185   1.245   1.013  1.5740  0.0680 -0.6852
  168SOL     OW  559   1.670   0.415   0.977  0.1388 -0.4185  0.0551
  168SOL    HW1  560   1.719   0.371   1.046  0.4660 -1.3681 -0.7465
  168SOL    HW2  561   1.737   0.462   0.927 -0.0743  0.1348  0.2864
  169SOL     OW  562   0.803   3.101   0.401  0.1691  0.1767 -0.3425
  169SOL    HW1  563   0.725   3.046   0.414 -0.2335  1.2340  2.6660
  169SOL    HW2  564   0.767   3.188   0.381  0.5818  0.4972  0.2888
  170SOL     OW  565   3.157   2.817   4.726  0.2241  0.2564  0.0479
  170SOL    HW1  566   3.106   2.736   4.724 -1.1111  1.0085  1.2146
  170SOL    HW2  567   3.189   2.822   4.816  2.3700 -0.1655 -0.6498
  171SOL     OW  568   4.448   2.473   4.671  0.4549  0.0291 -0.7821
  171SOL    HW1  569   4.483   2.400   4.619  2.8028  2.0613 -2.2901
  171SOL    HW2  570   4.508   2.482   4.745 -0.9583 -0.7444  0.5005
  172SOL     OW  571   2.089   3.591   3.231 -0.3040 -0.0111  0.4547
  172SOL    HW1  572   2.138   3.617   3.309  0.8314  0.8462 -0.5027
  172SOL    HW2  573   2.073   3.674   3.185  1.3520 -0.7193 -1.5168
  173SOL     OW  574   4.504   3.746   3.722 -0.3770 -0.3025 -0.1503
  173SOL    HW1  575   4.421   3.770   3.682 -0.3328 -1.0868 -0.7294
  173SOL    HW2  576   4.570   3.797   3.674 -0.5330  0.5651  0.5211
  174SOL     OW  577   4.959   0.604   0.635  0.2664  0.3551 -0.3860
  174SOL    HW1  578   4.975   0.624   0.727  2.9881  1.0079 -0.9144
  174SOL    HW2  579   4.919   0.516   0.636 -0.7664  0.7998  1.4103
  175SOL     OW  580   1.413   0.287   2.961  0.6353 -0.1775 -0.2031
  175SOL    HW1  581   1.436   0.311   2.872 -0.0258 -0.3554 -0.4234
  175SOL    HW2  582   1.477   0.219   2.984  0.2249 -0.8027 -0.8786
  176SOL     OW  583   1.592   0.556   0.558 -0.7666 -0.0415 -0.4529
  176SOL    HW1  584   1.547   0.518   0.633  2.7475 -0.4661  1.7192
  176SOL    HW2  585   1.627   0.639   0.592 -0.9185  0.8449 -2.3571
  177SOL     OW  586   3.607   3.115   3.897 -0.1070 -0.4416 -0.0655
  177SOL    HW1  587   3.619   3.058   3.821  0.2684 -2.6609  1.5621
  177SOL    HW2  588   3.520   3.092   3.931  0.0797 -0.1037  0.6647
  178SOL     OW  589   4.839   4.390   3.524 -0.2579  0.2383  0.3177
  178SOL    HW1  590   4.895   4.313   3.532  1.3881  1.3019 -0.4375
  178SOL    HW2  591   4.873   4.450   3.591 -0.7660  0.7475  0.1196
  179SOL     OW  592   2.161   1.140   1.710 -0.0449  0.1951 -1.0441
  179SOL    HW1  593   2.152   1.094   1.793 -1.2653 -0.4041 -1.4886
  179SOL    HW2  594   2.174   1.232   1.734  0.3526 -0.0752 -0.1910
  180SOL     OW  595   3.361   3.535   2.835 -0.1932 -0.0304  0.0873
  180SOL    HW1  596   3.379   3.626   2.859 -1.7359  0.7460 -1.4129
  180SOL    HW2  597   3.266   3.526   2.846  0.1958 -2.2557  2.5616
  181SOL     OW  598   3.139   1.057   0.809 -0.3352  0.3214 -0.0147
  181SOL    HW1  599   3.048   1.074   0.833 -0.5463  0.6633 -1.0230
  181SOL    HW2  600   3.136   1.030   0.717  0.1406 -3.7239  0.9492
  182SOL     OW  601   2.177   4.218   0.921  0.2664  0.2428 -0.1969
  182SOL    HW1  602   2.202   4.261   1.003 -0.0954  1.4940 -0.7112
  182SOL    HW2  603   2.120   4.282   0.878 -0.6194 -0.9415 -0.8216
  183SOL     OW  604   0.887   0.343   4.734  0.3105  0.2722 -0.0920
  183SOL    HW1  605   0.975   0.325   4.766  0.3256 -1.0573 -0.7976
  183SOL    HW2  606   0.835   0.267   4.763 -0.6659  1.1638  0.5488
  184SOL     OW  607   3.464   0.574   0.456 -0.4040  0.1611  0.1791
  184SOL    HW1  608   3.369   0.587   0.462 -0.5133 -0.6495  0.3476
  184SOL    HW2  609   3.475   0.503   0.393  0.0929  0.1938  0.2224
  185SOL     OW  610   3.055   3.234   2.776  0.0321 -0.1323 -0.5314
  185SOL    HW1  611   2.984   3.265   2.720  0.6419 -0.3466 -1.4422
  185SOL    HW2  612   3.081   3.311   2.827 -1.2899 -0.2130  0.3117
  186SOL     OW  613   1.890   0.980   1.553  0.4889  0.1226 -0.2734
  186SOL    HW1  614   1.932   0.925   1.486 -0.7029 -0.8677 -0.2501
  186SOL    HW2  615   1.908   1.070   1.526 -1.2313 -0.1976 -2.8049
  187SOL     OW  616   4.630   0.756   1.400  0.0124 -0.5957  0.9417
  187SOL    HW1  617   4.648   0.758   1.306 -3.4697 -0.3848  0.1539
  187SOL    HW2  618   4.643   0.846   1.428 -0.2510 -0.3686  0.3554
  188SOL     OW  619   3.638   2.025   4.667 -0.2389  0.4088  0.3810
  188SOL    HW1  620   3.721   2.060   4.699 -0.4067  0.3226  0.9305
  188SOL    HW2  621   3.577   2.098   4.675 -0.4450  0.1792  0.9377
  189SOL     OW  622   1.087   3.753   0.547  0.6581 -0.0210  0.1010
  189SOL    HW1  623   1.035   3.795   0.616  0.0411 -0.1256 -0.2860
  189SOL    HW2  624   1.134   3.682   0.591 -0.5426 -0.7596  0.2424
  190SOL     OW  625   4.306   1.359   4.576  0.1887 -0.3951  0.2862
  190SOL    HW1  626   4.350   1.399   4.651  0.5218 -1.5850  0.7423
  190SOL    HW2  627   4.314   1.265   4.591  0.5728 -0.6548 -1.4336
  191SOL     OW  628   0.806   1.753   1.860  0.0634 -0.2458  0.3695
  191SOL    HW1  629   0.789   1.725   1.950  2.0878 -0.3378  0.7534
  191SOL    HW2  630   0.893   1.791   1.862 -0.3370  0.8743 -1.3316
  192SOL     OW  631   0.466   3.986   4.339  0.3316 -0.7906  0.1434
  192SOL    HW1  632   0.519   4.065   4.333  2.2799 -1.9451  0.9897
  192SOL    HW2  633   0.384   4.008   4.295  0.4711  1.9386  1.0581
  193SOL     OW  634   2.235   3.743   0.473  0.7199  0.3358 -0.3912
  193SOL    HW1  635   2.260   3.725   0.563 -1.9258 -0.4131  0.2871
  193SOL    HW2  636   2.302   3.699   0.420  1.1879 -0.9987  1.2243
  194SOL     OW  637   2.440   2.274   4.012  0.1843  0.7125 -0.0740
  194SOL    HW1  638   2.365   2.295   3.957  1.5470  0.5538 -2.1055
  194SOL    HW2  639   2.456   2.181   3.997 -0.8683  0.0305  2.5479
  195SOL     OW  640   2.392   0.202   0.640 -0.1231 -0.2353  0.1339
  195SOL    HW1  641   2.339   0.132   0.601  0.4190 -0.0484 -0.9840
  195SOL    HW2  642   2.469   0.157   0.675  0.6159 -0.1476 -1.2948
  196SOL     OW  643   3.963   0.356   2.105  0.0790 -0.3909 -0.6921
  196SOL    HW1  644   3.920   0.403   2.034  1.1937  0.9333 -0.5205
  196SOL    HW2  645   4.054   0.383   2.101  0.1397 -0.1246  1.3569
  197SOL     OW  646   0.337   3.379   1.346 -0.1950  0.0935 -0.0583
  197SOL    HW1  647   0.371   3.370   1.435  2.0954 -0.8957 -0.9316
  197SOL    HW2  648   0.270   3.311   1.339 -1.0578  0.7815  1.1462
  198SOL     OW  649   3.039   0.354   1.778  0.6043  0.2321  0.6466
  198SOL    HW1  650   2.943   0.351   1.785  0.6042  0.1934  0.6318
  198SOL    HW2  651   3.070   0.297   1.849  0.6544  1.3721  1.5562
  199SOL     OW  652   0.494   2.178   2.138 -0.0853  0.1253 -0.2692
  199SOL    HW1  653   0.578   2.134   2.128  0.4078  0.5674  1.5094
  199SOL    HW2  654   0.509   2.266   2.104  0.7237  0.7450  1.5780
  200SOL     OW  655   1.640   4.048   2.170 -0.2947 -0.7325 -0.0171
  200SOL    HW1  656   1.580   3.987   2.212 -0.6750 -0.4557 -0.1599
  200SOL    HW2  657   1.660   4.113   2.237 -2.0497  0.5494 -0.6628
  201SOL     OW  658   2.852   4.818   3.282 -0.1952 -0.3703 -0.2027
  201SOL    HW1  659   2.783   4.809   3.217 -0.0263 -1.8909 -0.1940
  201SOL    HW2  660   2.916   4.751   3.259  0.0606 -0.6713  1.3004
  202SOL     OW  661   2.363   1.711   1.957 -0.2142 -0.3713  0.5272
  202SOL    HW1  662   2.420   1.681   2.028 -0.9854 -3.4016 -0.0330
  202SOL    HW2  663   2.275   1.684   1.984 -0.7128 -0.2875 -0.9493
  203SOL     OW  664   1.112   3.237   1.281 -0.3220  0.1611 -0.4853
  203SOL    HW1  665   1.191   3.191   1.252 -0.0420 -1.1312  1.9665
  203SOL    HW2  666   1.050   3.226   1.209  0.6988 -1.6243 -1.1755
  204SOL     OW  667   0.751   2.775   3.262  0.3103 -0.1165 -0.3989
  204SOL    HW1  668   0.709   2.861   3.257 -1.0160 -0.6449  1.1048
  204SOL    HW2  669   0.799   2.768   3.179  0.1941  1.9236 -0.6998
  205SOL     OW  670   3.224   4.132   3.377  0.1251  0.0162 -0.0980
  205SOL    HW1  671   3.245   4.153   3.468  0.7891  2.1087 -0.6730
  205SOL    HW2  672   3.140   4.087   3.381  0.5832 -0.7675  1.6043
  206SOL     OW  673   4.687   1.833   0.976  0.4556  0.4013  0.3166
  206SOL    HW1  674   4.781   1.850   0.986  0.2414  0.6795  2.2073
  206SOL    HW2  675   4.661   1.793   1.060 -1.4735  2.0717  0.5809
  207SOL     OW  676   4.765   2.922   3.707  0.1535  0.0540  0.0595
  207SOL    HW1  677   4.844   2.977   3.706 -0.5592  1.1047 -0.3445
  207SOL    HW2  678   4.745   2.907   3.615 -1.1949  1.4326  0.0867
  208SOL     OW  679   2.045   1.412   0.448 -0.0233  0.0731 -0.1204
  208SOL    HW1  680   2.059   1.326   0.408 -0.8007 -0.1262  0.0269
  208SOL    HW2  681   2.049   1.474   0.375  0.5009 -0.0868 -0.2316
  209SOL     OW  682   4.786   2.742   1.283 -0.2635  0.6535 -0.0083
  209SOL    HW1  683   4.780   2.729   1.188  1.6154 -0.0817 -0.0609
  209SOL    HW2  684   4.874   2.777   1.297 -0.1523 -0.1839  1.5436
  210SOL     OW  685   0.885   3.942   3.453 -0.2688  0.3013  0.1631
  210SOL    HW1  686   0.799   3.929   3.491 -1.7929  1.6998 -2.5003
  210SOL    HW2  687   0.915   4.025   3.490 -0.5974  0.3839  0.2476
  211SOL     OW  688   0.933   2.320   1.088 -0.5562 -1.2606 -0.2567
  211SOL    HW1  689   0.986   2.241   1.093  0.4855 -0.5770 -0.2722
  211SOL    HW2  690   0.973   2.380   1.150 -0.6065 -0.3212 -1.1122
  212SOL     OW  691   2.795   0.130   3.248 -0.7046 -0.0035  0.2154
  212SOL    HW1  692   2.876   0.167   3.283  0.2923  0.5665 -2.4212
  212SOL    HW2  693   2.776   0.057   3.306  1.0343  0.5646  1.6244
  213SOL     OW  694   0.551   2.983   3.446  0.1351  0.5555 -0.2525
  213SOL    HW1  695   0.626   3.007   3.391  0.7461 -0.4386  0.1186
  213SOL    HW2  696   0.482   2.961   3.384  0.5116  0.3837 -0.6132
  214SOL     OW  697   4.892   3.826   0.905  0.9988 -0.5157  0.1098
  214SOL    HW1  698   4.915   3.875   0.826  0.8200 -0.6543 -0.0289
  214SOL    HW2  699   4.857   3.742   0.873 -2.1807  0.6275  0.1617
  215SOL     OW  700   2.351   4.075   4.925 -0.0017 -0.0559  0.1203
  215SOL    HW1  701   2.364   4.170   4.930 -0.7280  0.2317 -2.2556
  215SOL    HW2  702   2.307   4.053   5.007 -0.5705  1.8128  0.3788
  216SOL     OW  703   4.766   3.433   4.271  0.3305  0.0581  0.4096
  216SOL    HW1  704   4.684   3.384   4.258  1.4520 -1.9753  0.4796
  216SOL    HW2  705   4.768   3.453   4.364 -0.6387  1.2165  0.1987
  217SOL     OW  706   3.525   1.222   0.048 -0.7451 -0.9767 -0.1764
  217SOL    HW1  707   3.547   1.288  -0.018 -0.9510  1.6119  2.1463
  217SOL    HW2  708   3.607   1.209   0.097 -0.7193 -2.4726 -0.5856
  218SOL     OW  709   2.351   0.485   4.226 -0.2527  0.3684 -0.1236
  218SOL    HW1  710   2.432   0.452   4.264 -1.2669 -0.1970  1.6457
  218SOL    HW2  711   2.306   0.528   4.298 -1.0413  1.7155 -1.3426
  219SOL     OW  712   2.046   1.590   4.931 -0.1568 -0.0617 -0.1258
  219SOL    HW1  713   2.078   1.673   4.896 -0.7635  0.5742  0.8022
  219SOL    HW2  714   2.093   1.524   4.880  0.6096  0.8393 -0.6301
  220SOL     OW  715   1.048   4.199   3.170  0.7799 -0.9632  0.2390
  220SOL    HW1  716   1.059   4.265   3.238  1.7823 -1.5795  0.7001
  220SOL    HW2  717   1.016   4.122   3.216 -0.8645 -0.6823 -0.3684
  221SOL     OW  718   4.646   3.546   4.700 -0.1384  0.4468 -0.2131
  221SOL    HW1  719   4.737   3.546   4.672 -0.5745  0.2291 -1.7203
  221SOL    HW2  720   4.602   3.485   4.641 -1.5940  1.8760 -0.6759
  222SOL     OW  721   4.458   4.912   1.760 -0.1424  0.3205  0.0921
  222SOL    HW1  722   4.522   4.934   1.693  0.7893  1.6275  1.3471
  222SOL    HW2  723   4.485   4.825   1.791  0.1262  0.2237 -0.4031
  223SOL     OW  724   0.213   3.402   1.001  0.8413 -0.0414  0.0297
  223SOL    HW1  725   0.232   3.437   0.914  1.8681 -1.1961 -0.2395
  223SOL    HW2  726   0.208   3.308   0.989  2.4126 -0.3681  1.4350
  224SOL     OW  727   1.795   1.654   3.870  0.6597 -0.7539  0.2509
  224SOL    HW1  728   1.807   1.580   3.930 -0.1780 -0.7137  0.4792
  224SOL    HW2  729   1.858   1.719   3.900 -0.5227 -0.2846  1.8394
  225SOL     OW  730   3.140   2.258   0.403  0.3606  0.1852  0.7693
  225SOL    HW1  731   3.209   2.233   0.342  0.3259  0.1780  0.7326
  225SOL    HW2  732   3.184   2.312   0.469  0.4979 -0.2565  1.0379
  226SOL     OW  733   0.217   2.111   0.747  0.1402 -0.6080  0.2060
  226SOL    HW1  734   0.281   2.154   0.690  0.4028  0.9663  1.6215
  226SOL    HW2  735   0.268   2.077   0.820 -0.4217 -0.8253  0.5050
  227SOL     OW  736   4.324   0.863   2.043 -0.3594  0.3837 -0.2280
  227SOL    HW1  737   4.265   0.843   2.116  0.1153  2.6603  0.8798
  227SOL    HW2  738   4.278   0.829   1.966 -1.8715 -0.2437  0.8771
  228SOL     OW  739   1.130   0.636   1.442 -0.8719  0.0379  0.4945
  228SOL    HW1  740   1.208   0.692   1.446 -1.6209  1.0451  2.0940
  228SOL    HW2  741   1.164   0.547   1.449  0.1792  0.4363  0.6222
  229SOL     OW  742   4.899   0.329   0.637 -0.4629 -0.2618  0.1372
  229SOL    HW1  743   4.917   0.331   0.543 -0.5006 -0.6215  0.1181
  229SOL    HW2  744   4.924   0.240   0.664 -1.1500 -0.4091  0.3230
  230SOL     OW  745   2.903   3.417   1.648 -0.6246 -0.7215  0.0488
  230SOL    HW1  746   2.955   3.463   1.714  0.4710 -2.3474  0.3629
  230SOL    HW2  747   2.934   3.326   1.651 -1.6978 -1.1895 -1.5666
  231SOL     OW  748   0.099   1.239   3.548 -0.2508  0.3205 -0.2287
  231SOL    HW1  749   0.090   1.305   3.617  1.1263  0.3128 -0.0251
  231SOL    HW2  750   0.143   1.166   3.591 -0.5629 -0.2034 -0.7941
  232SOL     OW  751   3.034   0.437   4.364  0.2462 -0.2147  0.3310
  232SOL    HW1  752   3.003   0.451   4.454 -3.2907 -0.4615 -0.6732
  232SOL    HW2  753   3.025   0.343   4.350  2.0435 -0.3774  0.0703
  233SOL     OW  754   3.087   1.308   0.504  0.1961  0.3587  0.0973
  233SOL    HW1  755   3.108   1.339   0.416  1.7314  0.6915  0.5331
  233SOL    HW2  756   2.992   1.314   0.510 -0.1397 -1.2615 -2.1041
  234SOL     OW  757   2.598   4.646   3.938 -0.1442 -0.3932 -0.3944
  234SOL    HW1  758   2.528   4.685   3.886 -0.6543 -0.2610  0.3801
  234SOL    HW2  759   2.637   4.720   3.984 -0.5962 -0.6802  0.4671
  235SOL     OW  760   2.510   3.390   3.505 -0.0494  0.2755  0.1944
  235SOL    HW1  761   2.512   3.478   3.467  1.1374  0.0344 -0.3618
  235SOL    HW2  762   2.532   3.404   3.597 -0.7145  0.6349  0.3096
  236SOL     OW  763   1.427   4.337   3.888 -0.2165 -0.5375 -0.1860
  236SOL    HW1  764   1.360   4.319   3.954  0.3868  0.1966  0.6319
  236SOL    HW2  765   1.495   4.272   3.904 -0.3754 -0.8043 -0.5485
  237SOL     OW  766   3.588   1.797   0.055  0.3717  0.3495 -0.4124
  237SOL    HW1  767   3.666   1.801  -0.001  0.2246 -0.8421 -0.7272
  237SOL    HW2  768   3.621   1.818   0.143  0.5999  2.2765 -0.9097
  238SOL     OW  769   2.195   3.472   2.147 -0.5411 -0.4232 -0.6672
  238SOL    HW1  770   2.138   3.417   2.201  0.3614  0.2133  1.0200
  238SOL    HW2  771   2.153   3.558   2.147  0.6717  0.2190  1.1208
  239SOL     OW  772   4.050   3.925   1.301 -0.0931  0.3261 -0.0686
  239SOL    HW1  773   4.053   4.000   1.360  0.9524  0.9084 -0.8338
  239SOL    HW2  774   4.038   3.850   1.359  1.6583  0.7935  1.0015
  240SOL     OW  775   4.604   0.959   2.113  0.5021  0.1413  0.1126
  240SOL    HW1  776   4.527   0.932   2.064  0.3734  0.0454  0.3669
  240SOL    HW2  777   4.640   0.877   2.147 -0.4160  0.3457  1.6777
  241SOL     OW  778   0.982   1.771   3.293  1.0658  0.0755  0.4939
  241SOL    HW1  779   0.978   1.725   3.209  1.5018 -0.4666  0.7548
  241SOL    HW2  780   0.992   1.701   3.358  0.3879  0.4679  1.0297
  242SOL     OW  781   1.192   1.055   1.213  0.1618  0.3096 -0.9857
  242SOL    HW1  782   1.186   1.104   1.131 -1.7841  0.6610 -0.6836
  242SOL    HW2  783   1.284   1.063   1.239  0.4410  1.6594 -2.2454
  243SOL     OW  784   3.682   0.720   3.788  0.5267 -0.7820 -0.0282
  243SOL    HW1  785   3.754   0.711   3.726 -0.4379 -0.5225 -1.2353
  243SOL    HW2  786   3.609   0.675   3.745  0.1412 -1.6073  1.4574
  244SOL     OW  787   4.013   2.846   1.381 -0.8541  0.2635  0.1771
  244SOL    HW1  788   3.993   2.783   1.450  0.0755  0.7956  0.9619
  244SOL    HW2  789   4.007   2.931   1.424 -2.3398  0.7592 -0.9244
  245SOL     OW  790   4.057   3.944   4.430 -0.2178 -0.5917  0.3269
  245SOL    HW1  791   4.023   3.858   4.406 -0.6040 -1.2001  2.8062
  245SOL    HW2  792   4.115   3.928   4.505  2.2842  0.9547 -1.1185
  246SOL     OW  793   2.145   3.312   3.652  0.0139 -0.4855  0.0458
  246SOL    HW1  794   2.116   3.359   3.573  0.4644 -0.7822 -0.3006
  246SOL    HW2  795   2.079   3.243   3.664 -0.0822 -0.4110 -0.0476
  247SOL     OW  796   2.062   2.770   4.349  0.2573 -0.2838 -0.3643
  247SOL    HW1  797   2.092   2.714   4.277  0.1077 -0.1010 -0.5689
  247SOL    HW2  798   2.019   2.844   4.306 -2.3538 -1.5228 -0.1000
  248SOL     OW  799   3.572   4.552   2.902 -0.1727 -0.5459 -0.6304
  248SOL    HW1  800   3.527   4.620   2.852  0.4181  0.3666  0.0244
  248SOL    HW2  801   3.531   4.555   2.988  1.3172  0.5789  0.1071
  249SOL     OW  802   0.527   0.225   1.525 -0.3403  0.0123 -0.2830
  249SOL    HW1  803   0.485   0.308   1.548  0.9870  0.4614  0.6965
  249SOL    HW2  804   0.506   0.212   1.433 -0.7427  1.3429 -0.3993
  250SOL     OW  805   4.029   4.067   3.259  0.0115 -0.6884  0.3595
  250SOL    HW1  806   3.984   4.146   3.291  0.1975  0.0272 -1.0427
  250SOL    HW2  807   4.102   4.055   3.319 -0.2660 -0.0403  0.8438
  251SOL     OW  808   0.031   3.225   4.367 -0.4728 -0.1766  0.1433
  251SOL    HW1  809   0.054   3.133   4.372 -0.4889 -0.2348 -0.7448
  251SOL    HW2  810  -0.027   3.240   4.442 -1.9171 -1.3071 -0.7182
  252SOL     OW  811   1.547   4.994   3.045  0.1916  0.3864  0.6713
  252SOL    HW1  812   1.622   4.975   2.989 -1.6258  1.4350 -2.4179
  252SOL    HW2  813   1.497   4.912   3.046  0.2652  0.3437  0.8113
  253SOL     OW  814   0.307   1.150   1.561 -0.0528  0.1401  0.4849
  253SOL    HW1  815   0.318   1.220   1.497 -0.3877 -1.1265 -1.0071
  253SOL    HW2  816   0.395   1.135   1.595  0.7197 -1.1180 -1.8491
  254SOL     OW  817   3.364   2.697   3.312 -0.0811 -0.9005  0.0889
  254SOL    HW1  818   3.449   2.660   3.289  0.4560 -0.4011  1.1771
  254SOL    HW2  819   3.385   2.780   3.356 -1.1125 -0.8973  0.6069
  255SOL     OW  820   2.007   2.529   3.386 -0.1221 -0.8902 -0.2674
  255SOL    HW1  821   2.049   2.472   3.322  1.1807  0.2996 -0.5185
  255SOL    HW2  822   2.045   2.616   3.371 -1.1465 -0.1851  0.9016
  256SOL     OW  823   1.060   0.427   3.900 -0.3550  0.3145 -0.5308
  256SOL    HW1  824   1.082   0.360   3.835  0.5707  0.9072 -0.8478
  256SOL    HW2  825   0.992   0.479   3.857  1.7505  2.0421 -1.9942
  257SOL     OW  826   0.122   0.486   1.367  0.3241 -0.2106 -0.4543
  257SOL    HW1  827   0.097   0.433   1.292  1.4039  0.7152 -1.5031
  257SOL    HW2  828   0.044   0.540   1.385  0.3112  0.0979 -1.3911
  258SOL     OW  829   4.829   1.410   2.005  0.2948 -0.4070 -0.0294
  258SOL    HW1  830   4.783   1.409   2.089  0.4393  0.0592  0.0567
  258SOL    HW2  831   4.822   1.320   1.974  1.5594 -0.9758  1.2068
  259SOL     OW  832   1.940   4.682   3.548  0.4958 -0.5517 -0.1396
  259SOL    HW1  833   1.958   4.775   3.561  1.8069 -0.1670 -3.6091
  259SOL    HW2  834   2.017   4.637   3.584  0.5279 -0.1837  0.2555
  260SOL     OW  835   0.058   2.454   0.736  0.5003 -0.4493  0.3215
  260SOL    HW1  836   0.043   2.417   0.823  2.8013 -2.3498  0.0059
  260SOL    HW2  837   0.151   2.478   0.736  0.5698 -0.6006 -1.6428
  261SOL     OW  838   3.869   2.257   0.690 -0.1650  0.0072  0.2795
  261SOL    HW1  839   3.888   2.350   0.705 -2.2964  0.3574  1.1898
  261SOL    HW2  840   3.845   2.253   0.597  0.6307  0.1969  0.0504
  262SOL     OW  841   0.192   1.261   3.006 -0.0611  0.0560 -0.3305
  262SOL    HW1  842   0.201   1.283   3.098  0.0072 -1.0413 -0.0658
  262SOL    HW2  843   0.281   1.244   2.976 -0.0537  0.6510 -0.6749
  263SOL     OW  844   1.350   0.584   3.395 -0.1848  0.1871 -0.3170
  263SOL    HW1  845   1.351   0.489   3.408 -0.3046  0.1730 -0.4034
  263SOL    HW2  846   1.277   0.615   3.449  0.5742  0.3733  0.6273
  264SOL     OW  847   2.712   3.230   0.892  0.3613  0.3322 -0.1043
  264SOL    HW1  848   2.781   3.290   0.919 -0.9585  1.8381  0.1159
  264SOL    HW2  849   2.662   3.214   0.972 -1.0433  1.3636 -0.7352
  265SOL     OW  850   4.627   3.209   0.899  0.0925  0.6299  0.0066
  265SOL    HW1  851   4.567   3.270   0.943  0.8298  1.3718  0.0184
  265SOL    HW2  852   4.589   3.198   0.812 -1.2567 -0.6738  0.7182
  266SOL     OW  853   3.580   1.871   4.109 -0.1182 -0.5645 -0.1928
  266SOL    HW1  854   3.578   1.849   4.016  0.8655 -0.1367 -0.3188
  266SOL    HW2  855   3.513   1.940   4.118 -0.1157 -0.5041 -0.6055
  267SOL     OW  856   2.788   1.004   4.132  0.4025  0.5325  0.5314
  267SOL    HW1  857   2.843   1.083   4.133 -1.6145  2.0083  0.5147
  267SOL    HW2  858   2.845   0.935   4.167  1.9686  2.1731  1.3933
  268SOL     OW  859   0.700   3.895   1.877  0.6722 -0.2574 -0.3122
  268SOL    HW1  860   0.771   3.920   1.819 -0.3725 -0.4478 -1.7353
  268SOL    HW2  861   0.681   3.974   1.928  1.7408 -0.1456 -0.0800
  269SOL     OW  862   2.093   3.779   2.154 -0.1188 -0.4702  0.4665
  269SOL    HW1  863   2.143   3.814   2.228  0.2092 -0.3727  0.2024
  269SOL    HW2  864   2.013   3.831   2.154  1.1984  1.7570 -1.1470
  270SOL     OW  865   0.823   1.393   1.645  0.3977 -0.0826  0.2436
  270SOL    HW1  866   0.819   1.396   1.741  1.7778  1.8214  0.3123
  270SOL    HW2  867   0.910   1.357   1.626  0.0754 -0.5811 -0.2975
  271SOL     OW  868   1.754   0.987   2.631 -0.2102  0.0253  0.2565
  271SOL    HW1  869   1.817   0.944   2.688  0.4230 -1.0357 -1.1879
  271SOL    HW2  870   1.705   0.916   2.590 -0.6833  0.7489 -0.4803
  272SOL     OW  871   0.241   1.295   4.433 -0.2211 -0.2743 -0.2726
  272SOL    HW1  872   0.236   1.227   4.500 -2.1678 -0.4798 -0.5634
  272SOL    HW2  873   0.327   1.335   4.445  0.3106 -1.7113  0.9520
  273SOL     OW  874   3.066   3.850   2.612 -0.0717  0.3498 -0.3558
  273SOL    HW1  875   2.999   3.787   2.636 -0.7796  1.6606  1.3685
  273SOL    HW2  876   3.110   3.812   2.536  0.2340 -2.7025  1.1988
  274SOL     OW  877   4.061   4.522   3.788 -0.9971  0.2766  0.6277
  274SOL    HW1  878   4.112   4.602   3.775  0.8726 -0.7593  1.0824
  274SOL    HW2  879   4.087   4.465   3.716 -0.0296 -0.9556  1.8868
  275SOL     OW  880   2.157   0.954   1.097 -0.3385  0.0182 -0.1206
  275SOL    HW1  881   2.228   0.897   1.069  0.9164  1.6202 -0.3513
  275SOL    HW2  882   2.115   0.980   1.015 -1.3212 -1.0261  0.0218
  276SOL     OW  883   0.792   1.015   2.953 -0.2322 -0.3312  0.4837
  276SOL    HW1  884   0.792   0.953   2.880  0.5777  0.2078  0.0090
  276SOL    HW2  885   0.851   0.976   3.018  1.4697  0.5943 -0.4267
  277SOL     OW  886   0.486   2.248   3.142  0.4667 -0.0667  0.6178
  277SOL    HW1  887   0.508   2.341   3.144 -0.6807  0.2128  1.5265
  277SOL    HW2  888   0.537   2.213   3.070  1.4488  1.1301  0.6935
  278SOL     OW  889   0.173   0.923   1.384 -0.0494 -0.5745  0.1415
  278SOL    HW1  890   0.139   0.861   1.318 -0.6309 -1.6839  1.4193
  278SOL    HW2  891   0.265   0.901   1.392  0.7340  1.4318 -2.2497
  279SOL     OW  892   1.340   1.182   1.712 -0.0213 -0.2852 -0.8384
  279SOL    HW1  893   1.424   1.226   1.716 -0.6450  0.9597 -1.0390
  279SOL    HW2  894   1.336   1.145   1.624 -0.1042  0.5331 -1.1890
  280SOL     OW  895   1.327   2.690   4.665 -0.1816  0.0648  0.4334
  280SOL    HW1  896   1.352   2.734   4.746  0.3599  0.5870 -0.0148
  280SOL    HW2  897   1.390   2.619   4.655 -0.6078 -0.3720  0.7691
  281SOL     OW  898   4.006   2.129   2.919  0.2283 -0.0265 -0.0704
  281SOL    HW1  899   4.079   2.174   2.961 -0.8917  0.7725  1.0846
  281SOL    HW2  900   3.932   2.189   2.929 -0.7571 -1.1158 -0.6051
  282SOL     OW  901   1.877   4.995   1.049 -0.5444 -0.5344  0.4259
  282SOL    HW1  902   1.813   4.925   1.059 -0.3371 -0.5880  1.4906
  282SOL    HW2  903   1.890   5.003   0.955 -0.0613 -2.4004  0.3053
  283SOL     OW  904   1.210   0.589   4.658  0.1501 -0.2107 -0.0274
  283SOL    HW1  905   1.269   0.586   4.583 -0.8717  0.1072 -0.8660
  283SOL    HW2  906   1.252   0.533   4.724  1.2024 -0.2632 -0.7246
  284SOL     OW  907   0.051   4.659   1.653  0.6497  0.5046 -0.4064
  284SOL    HW1  908   0.109   4.660   1.577  0.0960 -1.7361 -0.9349
  284SOL    HW2  909   0.089   4.593   1.712 -1.3668 -1.1789 -0.8626
  285SOL     OW  910   1.466   3.709   2.527  0.2568 -0.1555  0.5333
  285SOL    HW1  911   1.471   3.765   2.604 -0.7456  1.1277 -0.3024
  285SOL    HW2  912   1.372   3.692   2.517  0.2950  0.3897 -0.8784
  286SOL     OW  913   1.616   0.456   0.264 -0.2951 -0.4037  0.1592
  286SOL    HW1  914   1.626   0.497   0.350 -1.4503 -0.1900  0.2156
  286SOL    HW2  915   1.542   0.502   0.225 -1.1469 -1.9095 -0.0800
  287SOL     OW  916   3.429   0.034   2.500 -0.4556 -0.4753 -0.3410
  287SOL    HW1  917   3.397   0.124   2.501 -0.4196 -0.4265 -1.6137
  287SOL    HW2  918   3.363  -0.016   2.546  0.3476  0.4325  1.9636
  288SOL     OW  919   2.779   2.660   2.329  0.1601  0.0256  0.1588
  288SOL    HW1  920   2.774   2.694   2.240  1.2594 -0.0734  0.0478
  288SOL    HW2  921   2.691   2.673   2.365  0.1312  1.5090 -0.4035
  289SOL     OW  922   4.404   1.532   3.586  0.8297 -0.6866 -0.0618
  289SOL    HW1  923   4.331   1.591   3.568  0.6921 -0.5427  0.9353
  289SOL    HW2  924   4.419   1.486   3.503 -0.3951 -0.7255 -0.2718
  290SOL     OW  925   4.958   2.730   4.476  0.1085 -0.0470 -0.4389
  290SOL    HW1  926   5.008   2.715   4.396 -0.1997 -0.9409 -0.4774
  290SOL    HW2  927   4.887   2.788   4.449 -0.2694 -0.7284 -0.9253
  291SOL     OW  928   1.192   2.539   2.130 -0.1218  0.2151 -0.3971
  291SOL    HW1  929   1.158   2.508   2.046 -1.4122  1.6682 -0.4644
  291SOL    HW2  930   1.247   2.468   2.162 -0.0575 -0.6011 -2.2032
  292SOL     OW  931   2.475   0.965   0.705 -0.2569  0.1306  0.7075
  292SOL    HW1  932   2.435   1.049   0.727 -2.0495 -0.7990  1.1292
  292SOL    HW2  933   2.461   0.911   0.783  1.7396 -0.2990  0.8173
  293SOL     OW  934   4.735   4.524   3.857  0.6978 -0.4509  0.3438
  293SOL    HW1  935   4.765   4.478   3.935  1.0227 -1.9026 -0.6125
  293SOL    HW2  936   4.814   4.559   3.817  0.5594  0.0593  0.5016
  294SOL     OW  937   2.233   3.586   3.688 -0.3738  0.0762  0.1661
  294SOL    HW1  938   2.254   3.495   3.667  2.7896  1.2135 -2.6207
  294SOL    HW2  939   2.274   3.601   3.773  0.4273 -0.7448 -0.0552
  295SOL     OW  940   3.447   4.807   4.095  0.2273  0.1946  0.1373
  295SOL    HW1  941   3.525   4.756   4.114 -0.5126 -0.3033  1.9976
  295SOL    HW2  942   3.374   4.751   4.120 -0.7086  1.0990 -0.4553
  296SOL     OW  943   2.547   0.623   4.782 -0.2672  0.0782 -0.3057
  296SOL    HW1  944   2.603   0.590   4.712  0.3265  1.0330 -0.2938
  296SOL    HW2  945   2.498   0.546   4.812  0.2258 -0.5419 -1.0677
  297SOL     OW  946   1.752   3.692   2.991 -0.1028  0.3622 -0.2930
  297SOL    HW1  947   1.794   3.633   2.928  2.6335  0.8926  0.8923
  297SOL    HW2  948   1.718   3.633   3.059 -0.0103 -0.0202 -0.5706
  298SOL     OW  949   2.040   0.190   2.944 -0.1527  0.7177 -0.4060
  298SOL    HW1  950   2.041   0.138   3.025 -0.1161 -1.2454 -1.6116
  298SOL    HW2  951   2.133   0.210   2.928 -0.1564  1.0782  0.0136
  299SOL     OW  952   2.063   4.703   2.214  0.2954 -0.7434  0.1992
  299SOL    HW1  953   2.103   4.647   2.280  2.4159  1.7180  1.1928
  299SOL    HW2  954   2.014   4.768   2.265  0.5494  0.1931 -0.7248
  300SOL     OW  955   4.502   1.094   0.472  0.1269 -0.3120  1.0287
  300SOL    HW1  956   4.439   1.101   0.401  0.2400  0.8325  1.0238
  300SOL    HW2  957   4.563   1.167   0.458  1.6522 -1.5500  0.8507
  301SOL     OW  958   2.312   2.826   2.110  0.1293  0.0560  0.5366
  301SOL    HW1  959   2.317   2.898   2.174 -0.1911 -1.1759  1.9983
  301SOL    HW2  960   2.335   2.867   2.027  2.8176  1.2816  1.7538
  302SOL     OW  961   2.972   4.018   0.269 -0.0561  0.2709  0.1984
  302SOL    HW1  962   3.065   4.034   0.255  0.2619 -1.4264  0.1457
  302SOL    HW2  963   2.931   4.104   0.259  1.6204  1.2588  1.4226
  303SOL     OW  964   4.320   4.364   0.710 -0.5732 -0.4994 -0.5709
  303SOL    HW1  965   4.233   4.398   0.731  0.4100  1.8585 -0.0858
  303SOL    HW2  966   4.368   4.370   0.792  0.6993  0.4091 -1.3540
  304SOL     OW  967   1.853   0.838   3.439  0.5697  0.0866  0.1059
  304SOL    HW1  968   1.789   0.790   3.492  1.0355 -0.0122  0.5967
  304SOL    HW2  969   1.865   0.784   3.361  0.7679 -0.3901  0.4581
  305SOL     OW  970   3.263   2.757   1.650 -0.1738  0.7982 -0.2397
  305SOL    HW1  971   3.264   2.702   1.728  1.2551  0.1397 -0.6856
  305SOL    HW2  972   3.254   2.846   1.684  1.4794  0.6229  0.7807
  306SOL     OW  973   4.862   0.899   3.696  0.2142 -0.0716  0.2466
  306SOL    HW1  974   4.840   0.956   3.623 -3.1493 -1.1986  0.2138
  306SOL    HW2  975   4.843   0.952   3.774 -1.1712 -0.5013  0.2238
  307SOL     OW  976   2.924   4.440   3.488 -0.2763  0.0027  0.7048
  307SOL    HW1  977   2.890   4.525   3.517 -0.6481  0.5969 -1.2794
  307SOL    HW2  978   3.016   4.441   3.513  0.4677  2.2366 -1.6429
  308SOL     OW  979   4.626   3.423   3.100 -0.1959  0.1003  0.5430
  308SOL    HW1  980   4.601   3.336   3.132  0.8987 -1.0194 -1.4018
  308SOL    HW2  981   4.608   3.482   3.173 -2.3159 -1.5253  1.4354
  309SOL     OW  982   2.229   3.167   3.050 -0.3426 -0.3667  0.4706
  309SOL    HW1  983   2.323   3.157   3.064 -0.1973  0.4387  0.1616
  309SOL    HW2  984   2.219   3.258   3.020 -1.2591 -0.3261  0.8632
  310SOL     OW  985   0.844   1.664   1.595 -0.6162 -0.8985  0.2175
  310SOL    HW1  986   0.828   1.570   1.594 -1.8557 -0.7394  1.4522
  310SOL    HW2  987   0.829   1.690   1.686  2.2849  0.1058  0.5210
  311SOL     OW  988   0.893   3.976   1.398  0.2105  0.1105  0.3843
  311SOL    HW1  989   0.914   4.051   1.344  0.9302  0.4991  1.1665
  311SOL    HW2  990   0.824   3.929   1.351  0.9407  0.3309 -0.9398
  312SOL     OW  991   3.475   1.268   1.746 -0.4135 -0.3632 -0.3579
  312SOL    HW1  992   3.528   1.264   1.666  0.2958 -0.3149  0.0945
  312SOL    HW2  993   3.475   1.178   1.779 -0.1170 -0.2551 -0.0518
  313SOL     OW  994   4.181   2.019   1.550 -0.2701  0.6359  0.0132
  313SOL    HW1  995   4.183   1.971   1.633 -0.3932 -0.9114 -0.8304
  313SOL    HW2  996   4.103   1.987   1.506  1.1235 -0.5274 -1.7656
  314SOL     OW  997   0.700   3.462   2.303  0.1196  0.0410  0.0034
  314SOL    HW1  998   0.775   3.457   2.245  0.8221 -0.2711  0.9193
  314SOL    HW2  999   0.636   3.401   2.265  0.3050  0.3320 -0.7926
  315SOL     OW 1000   4.293   1.147   2.420  0.3002  0.4826 -0.1368
  315SOL    HW1 1001   4.208   1.103   2.423 -0.6904  2.3324  3.0314
  315SOL    HW2 1002   4.348   1.097   2.480  0.7031  0.7612 -0.2717
  316SOL     OW 1003   3.707   4.067   4.672 -0.5653 -0.2118 -0.1705
  316SOL    HW1 1004   3.699   4.150   4.626  0.3653 -0.2561 -0.4309
  316SOL    HW2 1005   3.734   4.005   4.604  0.7966 -0.2805  0.4133
  317SOL     OW 1006   1.320   0.653   1.783  0.4163 -0.0835 -0.6760
  317SOL    HW1 1007   1.359   0.635   1.698  1.0990  1.6757 -0.7699
  317SOL    HW2 1008   1.295   0.746   1.780  1.6714  0.4140  1.4725
  318SOL     OW 1009   0.900   3.819   2.410 -0.1539 -0.4901 -0.0856
  318SOL    HW1 1010   0.871   3.910   2.409 -0.2363 -0.5067  0.4199
  318SOL    HW2 1011   0.820   3.768   2.413 -0.1006 -0.5685  0.0208
  319SOL     OW 1012   4.501   0.765   4.743 -0.1079 -0.3350 -0.1454
  319SOL    HW1 1013   4.545   0.685   4.712 -1.4406 -0.2615 -2.4997
  319SOL    HW2 1014   4.525   0.831   4.678 -1.0789  0.5197  0.3576
  320SOL     OW 1015   3.667   1.264   1.510  0.1942  0.4440  0.0509
  320SOL    HW1 1016   3.608   1.331   1.475  0.2161  0.6134  0.3322
  320SOL    HW2 1017   3.738   1.258   1.446  0.2289  0.7430  0.0613
  321SOL     OW 1018   4.821   4.151   1.127  0.0752 -0.2359  0.6166
  321SOL    HW1 1019   4.760   4.110   1.188 -0.7751  1.7629  1.1614
  321SOL    HW2 1020   4.783   4.236   1.107  1.0437 -0.2467 -1.6244
  322SOL     OW 1021   3.411   0.009   5.004  0.4285  0.4011  0.6218
  322SOL    HW1 1022   3.399  -0.022   4.914 -0.2132  1.1469  0.4373
  322SOL    HW2 1023   3.414   0.104   4.996 -0.2224  0.5044  1.4441
  323SOL     OW 1024   4.776   1.339   4.375  0.3583  0.4613  0.0850
  323SOL    HW1 1025   4.724   1.307   4.449  0.3410  1.9972  0.7927
  323SOL    HW2 1026   4.711   1.366   4.310  0.3392  0.2374  0.0108
  324SOL     OW 1027   4.404   4.509   4.483  0.9026 -0.1060  0.6789
  324SOL    HW1 1028   4.440   4.585   4.439  1.3072  0.1784  1.4759
  324SOL    HW2 1029   4.478   4.449   4.492  0.6416 -0.4893  0.2695
  325SOL     OW 1030   2.282   0.762   0.492  0.1886  0.4669 -0.1671
  325SOL    HW1 1031   2.230   0.837   0.521  0.3846  0.1121  1.1731
  325SOL    HW2 1032   2.349   0.751   0.560  0.6941 -0.3980 -0.7776
  326SOL     OW 1033   2.385   4.304   2.427 -0.0964 -0.1004  0.0871
  326SOL    HW1 1034   2.415   4.220   2.394 -0.5747  0.1411 -1.0193
  326SOL    HW2 1035   2.311   4.283   2.484  0.6334 -0.5147  0.8927
  327SOL     OW 1036   3.362   4.917   1.459  0.2444  0.1788  0.2917
  327SOL    HW1 1037   3.454   4.893   1.447  0.4500  0.4770  1.2178
  327SOL    HW2 1038   3.313   4.842   1.424  0.8102  0.4989 -1.2608
  328SOL     OW 1039   3.110   4.073   2.231 -0.4113 -0.4208  0.2801
  328SOL    HW1 1040   3.027   4.073   2.278 -0.5750  1.3608  0.0502
  328SOL    HW2 1041   3.119   4.161   2.196  1.5505 -0.5707  0.2418
  329SOL     OW 1042   3.858   3.510   0.831  0.0525  0.2054  0.7531
  329SOL    HW1 1043   3.918   3.513   0.905  0.8331 -1.3376  0.2071
  329SOL    HW2 1044   3.821   3.422   0.832  0.0237  0.1751 -0.6580
  330SOL     OW 1045   3.161   3.889   0.854 -0.2488  0.3406  0.4311
  330SOL    HW1 1046   3.151   3.900   0.759 -1.0342 -0.4270  0.4112
  330SOL    HW2 1047   3.253   3.912   0.871 -0.0210  0.2152 -0.5493
  331SOL     OW 1048   2.557   2.886   1.575 -0.0685  0.3315 -0.2646
  331SOL    HW1 1049   2.531   2.842   1.495  1.7461  0.4214 -0.9507
  331SOL    HW2 1050   2.532   2.826   1.645  3.5950 -2.6312 -1.2057
  332SOL     OW 1051   2.848   2.306   2.095 -0.2748  0.3719  0.1938
  332SOL    HW1 1052   2.873   2.231   2.042  0.1065  1.2570 -0.9129
  332SOL    HW2 1053   2.839   2.271   2.184 -0.6698 -1.0767 -0.3968
  333SOL     OW 1054   3.308   4.182   1.797  0.2126 -0.3090 -0.3285
  333SOL    HW1 1055   3.335   4.202   1.887  0.9082 -2.9233  0.1068
  333SOL    HW2 1056   3.216   4.208   1.794  0.2228  0.0082  1.0859
  334SOL     OW 1057   3.662   3.270   1.635  0.2896  0.0081 -0.0221
  334SOL    HW1 1058   3.712   3.190   1.615  1.0955  0.6952 -0.8313
  334SOL    HW2 1059   3.578   3.237   1.668  1.0026 -1.1715  0.7018
  335SOL     OW 1060   5.000   0.452   3.813  0.0448 -0.3302 -0.1795
  335SOL    HW1 1061   4.937   0.522   3.828 -0.5219 -0.7402 -0.6329
  335SOL    HW2 1062   4.949   0.372   3.820  0.9331 -0.7951  1.7354
  336SOL     OW 1063   3.820   3.343   4.124  0.3102  0.1916  0.6433
  336SOL    HW1 1064   3.728   3.316   4.113  1.1236 -3.1610  0.7977
  336SOL    HW2 1065   3.844   3.381   4.039 -0.0419 -3.3385 -1.2646
  337SOL     OW 1066   0.266   1.102   0.013 -0.2357  0.4896  0.3665
  337SOL    HW1 1067   0.178   1.135   0.030 -0.3811  1.6283 -2.1354
  337SOL    HW2 1068   0.253   1.011  -0.011 -0.5709  0.3032  1.2269
  338SOL     OW 1069   2.985   1.019   1.526  0.1685  0.0031 -0.1184
  338SOL    HW1 1070   2.939   0.999   1.607 -1.0971  0.8284 -0.6100
  338SOL    HW2 1071   3.075   0.992   1.543  0.0554  0.6697  1.7504
  339SOL     OW 1072   4.964   1.617   1.441 -0.3422 -0.2234  0.5961
  339SOL    HW1 1073   4.906   1.659   1.377  0.1170 -1.1862 -0.4983
  339SOL    HW2 1074   4.905   1.567   1.498 -0.6699 -0.4285  0.0876
  340SOL     OW 1075   4.119   1.503   1.136  0.1078  0.1111  0.1223
  340SOL    HW1 1076   4.090   1.568   1.200 -2.2188 -0.6089 -0.1211
  340SOL    HW2 1077   4.163   1.555   1.069 -1.1182  1.3996  0.2583
  341SOL     OW 1078   0.375   4.364   1.888 -0.2295  0.0562 -0.2464
  341SOL    HW1 1079   0.425   4.314   1.824  0.1205  2.0800 -1.6269
  341SOL    HW2 1080   0.391   4.455   1.866  0.0632  0.8879  2.8552
  342SOL     OW 1081   1.208   0.186   2.421 -0.1117 -0.6362 -0.7721
  342SOL    HW1 1082   1.161   0.127   2.361 -0.2934  1.1201 -2.4619
  342SOL    HW2 1083   1.291   0.204   2.377  1.1894 -1.8130  1.0720
  343SOL     OW 1084   1.767   0.729   3.825 -0.1854 -0.1324  0.0060
  343SOL    HW1 1085   1.857   0.695   3.824 -0.2540 -0.3146 -0.7862
  343SOL    HW2 1086   1.767   0.800   3.762 -0.3377  0.5954  0.8099
  344SOL     OW 1087   0.412   1.828   3.498 -0.8058 -0.0371  0.0845
  344SOL    HW1 1088   0.481   1.876   3.452 -0.2291 -0.4380  0.5097
  344SOL    HW2 1089   0.378   1.767   3.432 -0.0842 -0.5087  0.1323
  345SOL     OW 1090   3.352   1.433   1.906  0.2125 -0.7296 -0.8977
  345SOL    HW1 1091   3.379   1.384   1.985 -1.7539  0.8186  0.8450
  345SOL    HW2 1092   3.390   1.383   1.834  2.1297 -2.2420  0.9851
  346SOL     OW 1093   2.717   4.510   1.565  0.1799 -0.8612  0.4766
  346SOL    HW1 1094   2.744   4.487   1.476  1.4756 -1.7048  1.0534
  346SOL    HW2 1095   2.655   4.442   1.590 -0.0485 -0.7227  0.2913
  347SOL     OW 1096   4.661   4.900   4.749 -0.6759 -0.6888 -0.3684
  347SOL    HW1 1097   4.730   4.966   4.754 -1.2485 -0.0855 -0.2313
  347SOL    HW2 1098   4.694   4.834   4.688 -0.4549  0.1783 -1.2152
  348SOL     OW 1099   0.059   2.265   0.155 -0.1075 -0.1254  0.2315
  348SOL    HW1 1100   0.071   2.337   0.217  1.2108 -0.1643  0.0550
  348SOL    HW2 1101  -0.029   2.231   0.174 -0.6841  1.4009  0.4343
  349SOL     OW 1102   3.505   2.386   1.395 -0.6771  0.0193 -0.0900
  349SOL    HW1 1103   3.468   2.429   1.472 -0.4157  1.7331 -0.8637
  349SOL    HW2 1104   3.467   2.432   1.321  0.4764 -0.3617 -0.9578
  350SOL     OW 1105   3.056   3.693   0.643 -0.0829 -0.0883 -0.1237
  350SOL    HW1 1106   3.053   3.632   0.569 -0.2880 -0.0290 -0.1655
  350SOL    HW2 1107   3.019   3.774   0.608  2.3290  0.8319 -0.7629
  351SOL     OW 1108   1.819   0.757   3.062 -0.3555  0.2127  0.1400
  351SOL    HW1 1109   1.912   0.764   3.040  0.5466  1.3799  3.7257
  351SOL    HW2 1110   1.814   0.678   3.117 -0.8124  1.8036  2.5100
  352SOL     OW 1111   4.662   0.976   1.724 -0.5526  0.1966  0.0871
  352SOL    HW1 1112   4.684   1.021   1.642 -0.0206 -1.9123 -0.9930
  352SOL    HW2 1113   4.570   0.949   1.713 -0.9703  1.2054  0.8624
  353SOL     OW 1114   2.866   0.753   0.766  0.0987  0.1833 -0.2385
  353SOL    HW1 1115   2.788   0.698   0.773  0.5422 -0.9395 -3.0340
  353SOL    HW2 1116   2.911   0.742   0.850 -1.7544 -0.6600  0.6954
  354SOL     OW 1117   0.558   3.163   0.027 -0.4192 -0.2530 -0.1906
  354SOL    HW1 1118   0.535   3.088   0.082 -0.4433 -0.1006  0.0106
  354SOL    HW2 1119   0.479   3.218   0.029 -0.7371 -0.6710 -1.0970
  355SOL     OW 1120   1.473   0.657   0.012 -0.0796  0.3498 -0.0043
  355SOL    HW1 1121   1.427   0.719  -0.045 -2.1829 -1.2042 -0.1331
  355SOL    HW2 1122   1.533   0.711   0.063 -0.6421  2.2509 -1.2456
  356SOL     OW 1123   1.915   4.678   4.734 -0.3578 -0.5013 -0.5633
  356SOL    HW1 1124   1.864   4.661   4.814 -1.3849  0.1418 -1.0561
  356SOL    HW2 1125   1.928   4.773   4.734  0.4961 -0.6155 -0.6583
  357SOL     OW 1126   2.665   4.945   0.361 -0.2546  0.1567  0.3955
  357SOL    HW1 1127   2.757   4.921   0.352 -0.1432  0.8100 -0.2998
  357SOL    HW2 1128   2.667   5.037   0.387 -0.7068  0.0220  0.9318
  358SOL     OW 1129   1.133   3.387   4.930 -0.7233 -0.0622 -0.0385
  358SOL    HW1 1130   1.093   3.300   4.930  0.8397 -0.8437 -1.4367
  358SOL    HW2 1131   1.093   3.432   5.004  0.1605 -2.8195  2.3240
  359SOL     OW 1132   1.750   1.245   1.799  0.1449  0.1706 -0.0268
  359SOL    HW1 1133   1.773   1.153   1.805  0.9141  0.3632  0.0547
  359SOL    HW2 1134   1.763   1.279   1.888 -0.0900  0.3738 -0.0662
  360SOL     OW 1135   0.526   0.358   3.178 -0.1900  0.0795 -0.0763
  360SOL    HW1 1136   0.589   0.419   3.141  0.0937 -0.0519  0.1821
  360SOL    HW2 1137   0.476   0.326   3.103  0.2334 -0.0219 -0.3204
  361SOL     OW 1138   4.839   1.824   2.424 -0.5315 -0.2458  0.0105
  361SOL    HW1 1139   4.910   1.853   2.481  0.2028  3.3128 -2.3473
  361SOL    HW2 1140   4.759   1.840   2.474  0.1671  0.0923  1.0327
  362SOL     OW 1141   3.254   2.895   2.818  0.0687  0.0358 -0.4595
  362SOL    HW1 1142   3.255   2.834   2.745  0.6543  1.4523 -1.6810
  362SOL    HW2 1143   3.162   2.899   2.844  0.2868 -3.2614  1.3862
  363SOL     OW 1144   2.694   3.238   4.784 -0.3947 -0.1354  0.1567
  363SOL    HW1 1145   2.722   3.306   4.723 -0.0679  0.2565  0.7282
  363SOL    HW2 1146   2.671   3.164   4.729 -1.4722  0.6838 -0.5248
  364SOL     OW 1147   4.036   0.102   1.847  0.1487  0.1320  0.0030
  364SOL    HW1 1148   4.092   0.170   1.810  3.0267 -1.2001  1.5539
  364SOL    HW2 1149   4.073   0.020   1.814 -1.0225 -0.8248  0.9653
  365SOL     OW 1150   3.082   1.344   3.113  0.0826  0.1016 -0.5504
  365SOL    HW1 1151   3.144   1.346   3.186  0.6771  0.9649 -1.0708
  365SOL    HW2 1152   3.135   1.324   3.036 -0.6103 -1.2737 -0.7057
  366SOL     OW 1153   0.753   1.205   1.208 -0.0165  0.3121 -0.1266
  366SOL    HW1 1154   0.716   1.238   1.290  1.1555 -0.6260  0.8148
  366SOL    HW2 1155   0.848   1.207   1.222  0.1579 -1.7636 -0.6625
  367SOL     OW 1156   4.601   0.589   4.549 -0.7010  0.6493  0.2420
  367SOL    HW1 1157   4.587   0.496   4.570  0.4997  0.4490  0.2393
  367SOL    HW2 1158   4.551   0.603   4.469 -2.3802  0.4823  1.2263
  368SOL     OW 1159   2.029   3.730   4.786 -0.2672  0.4856 -0.7960
  368SOL    HW1 1160   2.027   3.810   4.839  0.7673 -0.6899  1.1605
  368SOL    HW2 1161   2.103   3.743   4.727  0.4062  0.6661  0.0655
  369SOL     OW 1162   0.693   4.932   0.761 -0.1362  0.0930  0.2890
  369SOL    HW1 1163   0.771   4.967   0.718 -1.0745  1.5636 -0.3200
  369SOL    HW2 1164   0.725   4.894   0.842  1.2707  0.2156 -0.1795
  370SOL     OW 1165   3.770   0.068   0.759 -0.0485  0.2312 -0.1666
  370SOL    HW1 1166   3.808   0.107   0.837  1.5560  0.6847 -1.1363
  370SOL    HW2 1167   3.688   0.116   0.745  1.2309  2.4274 -0.5891
  371SOL     OW 1168   2.165   4.334   2.590 -0.4700  0.2952  0.4284
  371SOL    HW1 1169   2.185   4.408   2.647 -1.4397  0.3014  0.7802
  371SOL    HW2 1170   2.073   4.313   2.610 -0.7395  0.1200 -0.9200
  372SOL     OW 1171   2.372   1.325   4.205  0.5436  0.3654  0.0105
  372SOL    HW1 1172   2.368   1.287   4.293 -1.9594  0.7919  0.1577
  372SOL    HW2 1173   2.426   1.264   4.155 -1.0477 -1.9487  0.9339
  373SOL     OW 1174   1.978   3.526   1.016  0.0717  0.0261  0.0238
  373SOL    HW1 1175   2.032   3.539   0.938  0.9359 -0.2364  0.5546
  373SOL    HW2 1176   1.926   3.448   0.998  0.3373 -0.0863 -0.2562
  374SOL     OW 1177   1.315   4.421   1.619  0.8952  0.2342 -0.0943
  374SOL    HW1 1178   1.379   4.400   1.687  1.5443  1.6434 -0.2322
  374SOL    HW2 1179   1.342   4.369   1.544 -0.0054 -1.5749  0.7732
  375SOL     OW 1180   0.558   1.420   4.954 -0.6329  0.2913 -0.6152
  375SOL    HW1 1181   0.481   1.463   4.991 -0.3213 -1.3559  2.2586
  375SOL    HW2 1182   0.543   1.327   4.970  2.2023 -0.0458  0.7568
  376SOL     OW 1183   4.684   4.895   0.051 -0.0974  0.0586 -0.2384
  376SOL    HW1 1184   4.665   4.893  -0.043  1.1584 -0.3014 -0.5060
  376SOL    HW2 1185   4.713   4.806   0.072  0.6706  0.4093  0.2493
  377SOL     OW 1186   4.658   3.676   1.573 -0.2075  0.7013 -0.6069
  377SOL    HW1 1187   4.717   3.606   1.545 -0.1320 -0.0511  1.2926
  377SOL    HW2 1188   4.714   3.737   1.620 -0.7047  0.6432  0.0811
  378SOL     OW 1189   0.285   0.856   0.231 -0.6029 -0.0197  0.2947
  378SOL    HW1 1190   0.299   0.803   0.153 -0.4562 -1.0404  0.9912
  378SOL    HW2 1191   0.199   0.827   0.264 -0.3771 -0.0630  0.8548
  379SOL     OW 1192   2.342   4.707   1.493  0.4666  0.0616 -0.1029
  379SOL    HW1 1193   2.400   4.638   1.459  1.2641  0.8970 -0.4771
  379SOL    HW2 1194   2.401   4.779   1.514 -0.4905  1.1110 -0.9278
  380SOL     OW 1195   4.204   2.205   4.166 -0.2320 -0.7221 -0.1032
  380SOL    HW1 1196   4.238   2.226   4.253 -0.4376 -1.4401  0.1569
  380SOL    HW2 1197   4.234   2.277   4.111 -1.4223  0.5888  0.8706
  381SOL     OW 1198   3.132   2.301   2.215  0.0092  0.1565 -0.5217
  381SOL    HW1 1199   3.099   2.223   2.260 -1.2857  0.3209 -1.1402
  381SOL    HW2 1200   3.179   2.268   2.139  1.0471 -0.0744  0.2060
  382SOL     OW 1201   0.839   4.284   4.033  0.0869  0.2492  0.2677
  382SOL    HW1 1202   0.890   4.265   3.954 -0.0763  1.8578 -0.2673
  382SOL    HW2 1203   0.894   4.345   4.083 -0.8946  1.3351  0.0866
  383SOL     OW 1204   0.659   2.573   4.759 -0.2897 -0.2498  0.3371
  383SOL    HW1 1205   0.729   2.603   4.701 -0.4996  0.8699  0.6412
  383SOL    HW2 1206   0.702   2.513   4.820  0.7829  1.7287  1.6105
  384SOL     OW 1207   2.247   0.450   0.921  0.1572  0.0862  0.0857
  384SOL    HW1 1208   2.240   0.530   0.870 -0.3325 -0.0074  0.0072
  384SOL    HW2 1209   2.321   0.466   0.981  0.5198  0.3195 -0.4183
  385SOL     OW 1210   0.989   0.414   0.900 -0.2469  0.3183  0.5499
  385SOL    HW1 1211   0.985   0.451   0.988 -1.4706 -1.4236  1.2919
  385SOL    HW2 1212   0.952   0.483   0.844  0.3199  1.3638  1.4152
  386SOL     OW 1213   4.145   2.992   4.433  0.0528  0.1248  0.3553
  386SOL    HW1 1214   4.090   3.040   4.371 -0.5961 -0.4949  0.4380
  386SOL    HW2 1215   4.175   3.058   4.495 -2.1417  0.1779  1.4218
  387SOL     OW 1216   4.888   2.181   0.577 -0.3200  0.5363 -0.1526
  387SOL    HW1 1217   4.978   2.191   0.607  0.1144  1.0924 -1.5713
  387SOL    HW2 1218   4.837   2.174   0.658  1.0664 -0.6661  0.6669
  388SOL     OW 1219   1.408   2.462   3.630  0.2154  1.3176  0.5805
  388SOL    HW1 1220   1.495   2.503   3.628  1.2482 -0.7261  1.0577
  388SOL    HW2 1221   1.412   2.397   3.560 -0.5605  0.4647  1.3233
  389SOL     OW 1222   1.847   1.644   0.855  0.4139  0.5748 -0.4919
  389SOL    HW1 1223   1.787   1.610   0.921  0.7735 -0.5368 -0.7152
  389SOL    HW2 1224   1.919   1.580   0.852 -0.2848 -0.2077 -2.9531
  390SOL     OW 1225   3.136   2.125   3.759 -0.3522 -0.1487 -0.2297
  390SOL    HW1 1226   3.170   2.085   3.839 -0.6284  0.9318  0.4375
  390SOL    HW2 1227   3.200   2.192   3.736 -0.8840  0.3634 -0.2332
  391SOL     OW 1228   2.974   3.389   4.754  0.1965 -0.1364 -0.0966
  391SOL    HW1 1229   2.995   3.405   4.662  1.1974  0.1738  0.1795
  391SOL    HW2 1230   2.959   3.294   4.759  2.3002 -0.5023 -0.1599
  392SOL     OW 1231   0.701   0.301   1.080  0.1217  0.0485 -0.7305
  392SOL    HW1 1232   0.741   0.239   1.141 -1.3977 -0.9355 -0.6666
  392SOL    HW2 1233   0.625   0.255   1.046 -1.4992  2.1200 -0.1456
  393SOL     OW 1234   0.104   0.279   4.404 -0.0167  0.1556  0.0603
  393SOL    HW1 1235   0.187   0.325   4.386 -0.1073  0.0811 -0.5697
  393SOL    HW2 1236   0.078   0.243   4.319  1.5689 -3.6746  0.9865
  394SOL     OW 1237   4.846   1.720   0.111  0.1073 -0.0600 -0.5027
  394SOL    HW1 1238   4.909   1.772   0.162 -1.2197  0.3514  0.7795
  394SOL    HW2 1239   4.856   1.631   0.145  0.9753 -0.2853 -1.3052
  395SOL     OW 1240   4.939   2.425   2.133  0.6663 -0.2976 -0.1583
  395SOL    HW1 1241   4.937   2.439   2.228 -1.0748  0.2209 -0.2428
  395SOL    HW2 1242   4.930   2.330   2.124 -1.4309 -0.1775  0.1954
  396SOL     OW 1243   1.023   3.558   1.878  0.1649  0.2264  0.1637
  396SOL    HW1 1244   1.010   3.556   1.783 -1.3109 -0.1721  0.3390
  396SOL    HW2 1245   1.029   3.651   1.899  2.4242  0.2944 -0.4994
  397SOL     OW 1246   4.637   0.078   4.067 -0.4725  0.0374  0.1877
  397SOL    HW1 1247   4.704   0.094   4.134 -1.0743 -1.3286  1.1724
  397SOL    HW2 1248   4.596  -0.005   4.094 -0.4139 -0.8214 -2.1517
  398SOL     OW 1249   1.807   1.549   2.215  0.2822  0.1242  0.5408
  398SOL    HW1 1250   1.753   1.589   2.283 -0.0479  1.0998 -0.2750
  398SOL    HW2 1251   1.897   1.572   2.240  0.0651  2.1512 -0.3409
  399SOL     OW 1252   1.224   1.131   3.852 -0.3026 -0.2737 -0.1877
  399SOL    HW1 1253   1.171   1.194   3.805 -1.3353 -1.2195 -0.3264
  399SOL    HW2 1254   1.235   1.169   3.940 -1.7688 -0.3436  0.0522
  400SOL     OW 1255   1.174   2.280   0.864 -0.8465  0.0161  0.9441
  400SOL    HW1 1256   1.237   2.214   0.835 -0.4220  0.5297  0.6694
  400SOL    HW2 1257   1.228   2.354   0.892 -1.3249  1.1076 -0.8559
  401SOL     OW 1258   1.089   2.093   1.137  0.4326 -0.2576 -0.1611
  401SOL    HW1 1259   1.162   2.155   1.139  1.1157 -0.8958 -2.3187
  401SOL    HW2 1260   1.112   2.031   1.069 -0.7725 -2.2571  1.1465
  402SOL     OW 1261   0.375   0.836   2.945  0.3301 -0.5217 -0.0559
  402SOL    HW1 1262   0.327   0.787   3.013  0.4063 -0.2913  0.1622
  402SOL    HW2 1263   0.445   0.880   2.991  0.0788  0.0475 -0.2023
  403SOL     OW 1264   1.841   0.293   0.289  0.4158  0.1880 -0.0595
  403SOL    HW1 1265   1.787   0.367   0.262  0.7018  0.6218  0.5288
  403SOL    HW2 1266   1.931   0.325   0.281  0.5105  0.7006  2.3169
  404SOL     OW 1267   0.148   0.084   0.575 -0.3734 -0.1990  0.1594
  404SOL    HW1 1268   0.080   0.039   0.524 -0.5145 -0.6206  0.7010
  404SOL    HW2 1269   0.140   0.046   0.663  1.1496 -0.9144  0.0234
  405SOL     OW 1270   0.212   0.816   4.642  0.0728 -0.1187  0.2143
  405SOL    HW1 1271   0.267   0.784   4.570 -1.0578 -0.2153 -0.6375
  405SOL    HW2 1272   0.170   0.737   4.677  0.1637  0.0001  0.5991
  406SOL     OW 1273   1.288   0.807   4.851 -0.3126  0.1341 -0.4434
  406SOL    HW1 1274   1.298   0.850   4.766  1.5662 -1.5883 -1.1743
  406SOL    HW2 1275   1.228   0.734   4.834 -0.3616  0.1102 -0.1657
  407SOL     OW 1276   3.745   4.123   1.764  0.0152 -0.3914 -0.3548
  407SOL    HW1 1277   3.699   4.195   1.807 -2.2187 -2.1470  0.3918
  407SOL    HW2 1278   3.752   4.151   1.672  2.2935  2.1566  0.4554
  408SOL     OW 1279   2.481   3.194   1.330  0.2063  0.2543  0.1010
  408SOL    HW1 1280   2.552   3.192   1.267  0.1307  1.1004 -0.0240
  408SOL    HW2 1281   2.521   3.166   1.412  0.5266  0.0985 -0.1043
  409SOL     OW 1282   3.871   3.717   3.313  0.1217  0.0880  0.1023
  409SOL    HW1 1283   3.854   3.751   3.225 -0.1700 -0.5663 -0.0986
  409SOL    HW2 1284   3.845   3.625   3.309 -0.0580  0.0942  0.9237
  410SOL     OW 1285   1.861   2.442   4.119  0.1526 -0.2769  0.3254
  410SOL    HW1 1286   1.868   2.458   4.025 -0.8993  0.3138  0.3395
  410SOL    HW2 1287   1.810   2.361   4.126  0.3483 -0.3965  0.3926
  411SOL     OW 1288   1.515   2.037   0.542  0.2575  0.1510  0.3883
  411SOL    HW1 1289   1.545   2.106   0.483  0.9942  1.1088  1.8208
  411SOL    HW2 1290   1.456   1.984   0.489  0.0547  1.5928 -0.8980
  412SOL     OW 1291   0.432   2.324   0.692 -0.3004 -0.5932  0.0928
  412SOL    HW1 1292   0.483   2.256   0.649 -2.0633 -1.0170 -1.4785
  412SOL    HW2 1293   0.398   2.377   0.621  1.8886  2.7080  1.2946
  413SOL     OW 1294   3.516   2.126   1.008  0.2375  0.3622  0.2887
  413SOL    HW1 1295   3.506   2.214   0.972 -1.1931 -0.4112 -1.3839
  413SOL    HW2 1296   3.587   2.087   0.956 -1.2819 -0.4839 -1.2575
  414SOL     OW 1297   4.785   1.418   2.507 -0.2514  0.0310  0.2805
  414SOL    HW1 1298   4.783   1.466   2.590 -0.1663 -2.0211  1.5315
  414SOL    HW2 1299   4.875   1.428   2.476  0.0443 -0.1921  1.0590
  415SOL     OW 1300   4.837   0.117   4.839  0.4059 -0.5574 -0.4623
  415SOL    HW1 1301   4.820   0.204   4.875  1.5393 -0.0547 -1.1064
  415SOL    HW2 1302   4.886   0.072   4.908 -1.0016 -1.0634  0.2715
  416SOL     OW 1303   2.020   3.819   1.825 -0.3479  0.1391  0.2143
  416SOL    HW1 1304   2.039   3.910   1.804  1.3910 -0.4352 -0.9727
  416SOL    HW2 1305   1.981   3.822   1.912  1.2936  1.8914  0.9694
  417SOL     OW 1306   3.675   3.849   4.304 -0.4703 -0.4360 -0.0900
  417SOL    HW1 1307   3.600   3.794   4.280  0.2485 -0.6799 -1.9138
  417SOL    HW2 1308   3.671   3.922   4.243  1.9880 -1.5641 -1.7417
  418SOL     OW 1309   2.882   0.339   1.097 -0.1404  0.4568 -0.2538
  418SOL    HW1 1310   2.862   0.399   1.026  0.3658  1.4914  0.4537
  418SOL    HW2 1311   2.931   0.392   1.160  1.9103 -1.1142 -0.4067
  419SOL     OW 1312   3.028   2.043   2.622  0.0828  0.3161 -0.4201
  419SOL    HW1 1313   2.932   2.045   2.629 -0.1183 -2.3654 -1.0775
  419SOL    HW2 1314   3.058   2.044   2.713 -0.4508  2.5013 -0.2217
  420SOL     OW 1315   2.322   4.125   1.783  0.2051 -0.4846  0.2343
  420SOL    HW1 1316   2.291   4.115   1.693  0.8460  0.7520 -0.1446
  420SOL    HW2 1317   2.415   4.100   1.779  0.4412  0.3439  0.3722
  421SOL     OW 1318   0.404   0.563   0.460 -0.2908  0.4147  0.4035
  421SOL    HW1 1319   0.477   0.536   0.404 -0.1873 -2.1010  1.6254
  421SOL    HW2 1320   0.352   0.484   0.471 -2.0707  1.6540  1.2752
  422SOL     OW 1321   1.655   0.463   2.810  0.4837  0.1167  0.2899
  422SOL    HW1 1322   1.618   0.496   2.892  0.0265  0.6290 -0.1122
  422SOL    HW2 1323   1.598   0.499   2.742  0.7477 -0.4542 -0.2448
  423SOL     OW 1324   2.614   3.782   1.700 -0.4832  0.1202  0.2786
  423SOL    HW1 1325   2.620   3.709   1.639  1.3495 -0.3845  0.9772
  423SOL    HW2 1326   2.700   3.784   1.743 -0.7371  2.2363  0.7974
  424SOL     OW 1327   1.562   4.106   4.170 -0.1912  0.2476 -0.3056
  424SOL    HW1 1328   1.602   4.136   4.088  2.7492  0.1502  0.9556
  424SOL    HW2 1329   1.581   4.176   4.232 -3.2041  0.7660  0.1796
  425SOL     OW 1330   2.451   0.300   1.946 -0.5829 -0.4338 -0.4523
  425SOL    HW1 1331   2.504   0.348   2.009  0.9008 -2.2042 -0.2664
  425SOL    HW2 1332   2.372   0.353   1.936 -0.4281  0.4114  2.0964
  426SOL     OW 1333   3.857   0.275   2.372  0.6340  0.3393 -0.2974
  426SOL    HW1 1334   3.876   0.311   2.286 -1.8087 -0.5353 -1.2707
  426SOL    HW2 1335   3.847   0.181   2.357 -1.5385  0.3754  0.5629
  427SOL     OW 1336   2.367   2.017   2.496  0.4818  0.6190  0.2037
  427SOL    HW1 1337   2.318   1.959   2.554 -2.6840  1.5745 -1.2880
  427SOL    HW2 1338   2.358   2.104   2.535 -0.0397  0.9768 -0.6805
  428SOL     OW 1339   3.062   3.140   3.712 -0.1584 -0.2040 -0.0744
  428SOL    HW1 1340   3.014   3.061   3.686  1.4866 -0.9594 -1.0135
  428SOL    HW2 1341   3.150   3.108   3.734  0.5690  1.3788 -0.5502
  429SOL     OW 1342   1.190   0.281   0.539  0.9525  0.0561 -0.9469
  429SOL    HW1 1343   1.108   0.329   0.549  0.6556 -0.8232  1.4265
  429SOL    HW2 1344   1.256   0.348   0.523  0.1753  1.0277 -0.1918
  430SOL     OW 1345   2.644   1.091   2.899 -0.3220 -0.2166 -0.0719
  430SOL    HW1 1346   2.686   1.077   2.814 -1.2340 -1.2698 -0.3802
  430SOL    HW2 1347   2.550   1.097   2.879 -0.4069  1.5665  0.6487
  431SOL     OW 1348   1.426   3.628   1.138  0.2046 -0.2880  0.6101
  431SOL    HW1 1349   1.480   3.704   1.158 -0.6133  0.4840 -0.0537
  431SOL    HW2 1350   1.389   3.602   1.223 -0.0440  0.4699  0.7421
  432SOL     OW 1351   4.846   2.422   2.612  0.0412 -0.0636  0.1898
  432SOL    HW1 1352   4.858   2.440   2.518  0.9406  0.2053  0.3474
  432SOL    HW2 1353   4.780   2.352   2.614 -1.0441  0.8780 -0.5750
  433SOL     OW 1354   3.508   4.494   4.077 -0.5205  0.0566 -0.7389
  433SOL    HW1 1355   3.602   4.500   4.097 -0.9399  2.8877  0.8512
  433SOL    HW2 1356   3.472   4.441   4.149 -0.1755 -1.1698 -1.4356
  434SOL     OW 1357   3.721   1.864   0.280 -0.1454 -0.6547  0.5295
  434SOL    HW1 1358   3.712   1.773   0.309 -0.5944 -0.7129  0.2055
  434SOL    HW2 1359   3.792   1.899   0.335 -1.5307 -0.5207  2.3371
  435SOL     OW 1360   1.652   4.108   3.116 -0.2002 -0.5296  0.0128
  435SOL    HW1 1361   1.561   4.132   3.137 -0.2255  0.3772 -1.0392
  435SOL    HW2 1362   1.681   4.058   3.192 -0.8458  1.1213  1.4148
  436SOL     OW 1363   3.781   2.059   4.046 -0.2517  0.1007  0.2825
  436SOL    HW1 1364   3.744   2.129   4.100  0.7528 -0.1262  1.2920
  436SOL    HW2 1365   3.729   1.982   4.068  0.8285 -0.2417  1.7794
  437SOL     OW 1366   2.212   4.447   0.601 -0.5649 -0.7162  0.2298
  437SOL    HW1 1367   2.216   4.358   0.565 -0.5572 -0.2296 -1.0209
  437SOL    HW2 1368   2.121   4.457   0.629 -0.5976 -1.0704  0.2590
  438SOL     OW 1369   1.712   0.400   3.729 -0.2315 -0.2903 -0.9395
  438SOL    HW1 1370   1.746   0.424   3.816 -0.3010 -1.2573 -0.6338
  438SOL    HW2 1371   1.777   0.434   3.668  0.7124 -1.0842 -0.4208
  439SOL     OW 1372   1.962   2.583   0.291  0.0761  0.2411  0.5037
  439SOL    HW1 1373   1.912   2.637   0.230  0.3540 -1.3118 -1.1444
  439SOL    HW2 1374   1.960   2.495   0.254  2.0876 -0.3260  1.6048
  440SOL     OW 1375   2.606   1.030   2.375  0.3083  0.3960 -0.0322
  440SOL    HW1 1376   2.613   1.024   2.471 -0.1542 -1.8810 -0.0875
  440SOL    HW2 1377   2.538   1.095   2.361  0.3191  0.7045  1.1966
  441SOL     OW 1378   2.570   0.297   2.930 -0.4710  0.1878 -0.1354
  441SOL    HW1 1379   2.617   0.289   3.013 -0.3910  1.6065 -0.0248
  441SOL    HW2 1380   2.639   0.313   2.865 -0.7310  2.3760  0.0413
  442SOL     OW 1381   3.079   1.598   1.621 -0.5563 -0.0371  0.2177
  442SOL    HW1 1382   3.131   1.518   1.627  2.2989  1.5566 -1.1008
  442SOL    HW2 1383   3.104   1.649   1.698 -1.1996  0.2375  0.2576
  443SOL     OW 1384   1.936   3.011   4.955  0.4009 -0.0929 -0.1925
  443SOL    HW1 1385   1.883   3.071   4.903 -1.3144  0.8735  2.4271
  443SOL    HW2 1386   1.964   2.943   4.894 -2.4295  0.3111 -2.1229
  444SOL     OW 1387   2.012   0.925   2.292 -0.3181 -0.0714 -0.5845
  444SOL    HW1 1388   1.984   0.908   2.202  0.4311  0.4974 -0.9424
  444SOL    HW2 1389   1.958   0.998   2.322  0.6800  0.9688 -1.2410
  445SOL     OW 1390   1.221   3.604   0.719 -0.1033 -0.0440 -0.8151
  445SOL    HW1 1391   1.300   3.567   0.680  0.0747  0.0138 -0.5113
  445SOL    HW2 1392   1.204   3.548   0.795 -1.5801 -1.4177 -2.0580
  446SOL     OW 1393   3.523   1.404   0.458  0.4450  0.6641 -0.1007
  446SOL    HW1 1394   3.465   1.411   0.533  0.9875  1.5751  0.2517
  446SOL    HW2 1395   3.464   1.398   0.383 -0.1014  1.0018  0.2941
  447SOL     OW 1396   2.481   3.987   2.398 -0.5963  0.0925 -0.0315
  447SOL    HW1 1397   2.528   4.062   2.434  0.8359  0.1028 -1.7901
  447SOL    HW2 1398   2.498   3.991   2.304 -1.2523 -1.9119 -0.2861
  448SOL     OW 1399   1.701   1.682   1.784 -0.3847 -0.1268 -0.2453
  448SOL    HW1 1400   1.753   1.736   1.843 -0.5983 -0.0737 -0.1012
  448SOL    HW2 1401   1.762   1.653   1.717  0.2093 -1.3937  0.7958
  449SOL     OW 1402   1.508   1.165   2.091  0.6225 -0.0381 -0.1015
  449SOL    HW1 1403   1.550   1.080   2.078  0.9015  0.0569  0.1420
  449SOL    HW2 1404   1.565   1.210   2.154 -0.1171 -0.1063  0.6463
  450SOL     OW 1405   0.571   4.057   4.625  0.0705 -0.0411  0.2257
  450SOL    HW1 1406   0.502   4.015   4.677  0.4708  0.7308  1.4395
  450SOL    HW2 1407   0.523   4.113   4.564 -0.4254  0.7009  1.2412
  451SOL     OW 1408   1.463   2.006   2.462 -0.2711  0.2151 -0.0290
  451SOL    HW1 1409   1.517   2.036   2.389 -1.3098 -0.4196 -1.0964
  451SOL    HW2 1410   1.436   1.918   2.437 -1.7706  0.4949  0.4829
  452SOL     OW 1411   1.811   3.294   4.818  0.3759  0.0071 -0.1139
  452SOL    HW1 1412   1.804   3.299   4.913  0.9976  1.5936 -0.1223
  452SOL    HW2 1413   1.738   3.347   4.786 -1.3721 -2.5199 -0.6228
  453SOL     OW 1414   2.767   1.820   0.262  0.5200 -0.0489 -0.4667
  453SOL    HW1 1415   2.850   1.772   0.257  1.5588  1.2220  2.6282
  453SOL    HW2 1416   2.731   1.798   0.348 -1.5284  0.8019 -1.0357
  454SOL     OW 1417   2.201   0.779   2.639 -0.0704  0.0188  0.0369
  454SOL    HW1 1418   2.236   0.820   2.718 -0.1102  0.4127 -0.1429
  454SOL    HW2 1419   2.252   0.699   2.628  0.7881  0.5765 -0.2158
  455SOL     OW 1420   0.662   4.867   3.121 -0.0444  0.6502  0.0697
  455SOL    HW1 1421   0.745   4.841   3.160 -0.2227  1.0864  0.7384
  455SOL    HW2 1422   0.680   4.950   3.077 -0.1835  0.8742  0.4310
  456SOL     OW 1423   4.161   0.219   0.724 -0.1215 -0.0242  0.3778
  456SOL    HW1 1424   4.085   0.243   0.671 -0.7187 -1.5498  0.5027
  456SOL    HW2 1425   4.208   0.301   0.737 -1.4362  0.8476 -0.1909
  457SOL     OW 1426   3.917   0.546   1.266 -0.5099 -0.1280  0.4121
  457SOL    HW1 1427   3.855   0.504   1.207 -0.1647 -0.4614  0.2802
  457SOL    HW2 1428   3.896   0.508   1.352  0.5625 -1.4862  0.1123
  458SOL     OW 1429   2.242   0.897   3.246 -0.1848  0.4577 -0.0927
  458SOL    HW1 1430   2.331   0.933   3.244 -0.1778  0.4203 -0.9499
  458SOL    HW2 1431   2.206   0.926   3.330  0.8581 -0.0676  0.5595
  459SOL     OW 1432   1.375   4.508   0.914 -0.5871 -0.1321  0.6706
  459SOL    HW1 1433   1.318   4.522   0.990 -0.8261 -0.5834  0.5766
  459SOL    HW2 1434   1.316   4.480   0.844 -0.1713 -1.2963  0.7643
  460SOL     OW 1435   1.351   1.954   3.757 -0.0316  0.0702 -0.3664
  460SOL    HW1 1436   1.288   1.925   3.824 -0.3853  0.8229 -0.3611
  460SOL    HW2 1437   1.419   1.888   3.758  0.2272  0.3231  1.1132
  461SOL     OW 1438   2.399   2.292   1.460 -0.1080 -0.1447 -0.0058
  461SOL    HW1 1439   2.363   2.243   1.534  1.0693  0.8359  1.2666
  461SOL    HW2 1440   2.488   2.316   1.488  1.3065 -1.7269 -2.6608
  462SOL     OW 1441   1.865   2.234   1.199 -0.5897 -0.5651 -0.2256
  462SOL    HW1 1442   1.945   2.245   1.147  1.8422 -3.2646  2.4811
  462SOL    HW2 1443   1.880   2.286   1.278 -1.8040 -0.6127  0.0604
  463SOL     OW 1444   1.183   3.022   4.118 -0.0433  0.7760  0.3942
  463SOL    HW1 1445   1.243   2.947   4.122 -2.0298 -0.8848  0.8911
  463SOL    HW2 1446   1.232   3.095   4.155  2.1916 -0.0970 -0.6749
  464SOL     OW 1447   0.721   3.135   2.044  0.5605 -0.2332 -0.0109
  464SOL    HW1 1448   0.709   3.129   2.138 -0.7422 -1.0798 -0.2020
  464SOL    HW2 1449   0.765   3.219   2.030  1.0885 -0.2686  1.3601
  465SOL     OW 1450   0.415   1.145   2.902 -0.0777  0.0942 -0.1932
  465SOL    HW1 1451   0.490   1.183   2.857  0.3104  0.5413  0.8092
  465SOL    HW2 1452   0.453   1.095   2.974 -0.7902  1.4823  1.1774
  466SOL     OW 1453   3.874   1.988   3.655 -0.9349 -0.2985  0.2193
  466SOL    HW1 1454   3.938   1.966   3.588 -0.6905 -0.5745  0.5383
  466SOL    HW2 1455   3.873   1.912   3.713 -1.8010 -0.4348  0.0339
  467SOL     OW 1456   0.564   2.202   2.890 -0.0123  0.2001 -0.9519
  467SOL    HW1 1457   0.651   2.218   2.855 -1.5439  0.9565 -5.1190
  467SOL    HW2 1458   0.505   2.233   2.821 -3.6186 -0.0858  1.6971
  468SOL     OW 1459   1.340   3.344   3.991 -0.0708 -0.2324 -0.3718
  468SOL    HW1 1460   1.351   3.304   4.077 -2.6612 -1.1183 -0.3822
  468SOL    HW2 1461   1.386   3.285   3.931 -1.0274 -1.4412  0.0402
  469SOL     OW 1462   1.875   4.309   2.185  0.2034  0.3574 -0.0769
  469SOL    HW1 1463   1.969   4.291   2.189  0.2967  0.7985 -0.2930
  469SOL    HW2 1464   1.842   4.283   2.271 -0.0648 -3.0931 -1.0733
  470SOL     OW 1465   0.406   3.838   1.787  0.2802  0.6140  0.2902
  470SOL    HW1 1466   0.350   3.873   1.856  0.4567  0.2522  0.6177
  470SOL    HW2 1467   0.495   3.844   1.822  0.2883 -0.5090  0.5118
  471SOL     OW 1468   3.543   1.533   3.598  0.5900 -0.8030  0.3548
  471SOL    HW1 1469   3.485   1.583   3.540  2.5974  0.7830 -0.3913
  471SOL    HW2 1470   3.500   1.537   3.684 -0.6329 -0.0714 -0.2629
  472SOL     OW 1471   2.089   3.045   3.245  0.3428  0.3824  0.1513
  472SOL    HW1 1472   2.086   3.109   3.316  0.5942 -1.0735  1.5206
  472SOL    HW2 1473   2.130   3.092   3.172 -0.7311  2.1802  0.6490
  473SOL     OW 1474   0.804   4.474   1.164 -0.2957  0.4253  0.0647
  473SOL    HW1 1475   0.743   4.539   1.198 -1.2289  0.0940 -0.9301
  473SOL    HW2 1476   0.766   4.446   1.081  0.9251 -0.2113 -0.3055
  474SOL     OW 1477   2.726   4.375   3.293 -0.3182 -0.1193  0.6697
  474SOL    HW1 1478   2.790   4.423   3.346  0.2187 -0.4244  0.3070
  474SOL    HW2 1479   2.779   4.320   3.235 -0.8932 -1.5549  1.4335
  475SOL     OW 1480   1.599   4.547   2.269  0.0545  0.3604 -0.0016
  475SOL    HW1 1481   1.575   4.536   2.178  1.4203  0.9595 -0.4721
  475SOL    HW2 1482   1.574   4.465   2.312 -1.4509  0.4344 -0.6982
  476SOL     OW 1483   4.921   4.445   0.691  0.2000 -0.1554  0.5579
  476SOL    HW1 1484   4.848   4.496   0.656  1.1591 -1.2218 -3.5001
  476SOL    HW2 1485   4.880   4.380   0.748 -1.4022  2.4214  2.5684
  477SOL     OW 1486   1.401   2.766   2.453 -0.6069  0.0024 -0.9537
  477SOL    HW1 1487   1.386   2.860   2.450 -1.3259 -0.1096 -1.1093
  477SOL    HW2 1488   1.380   2.736   2.365 -0.9603 -0.3778 -0.7459
  478SOL     OW 1489   3.060   0.389   0.681  0.1345  0.0709 -0.6372
  478SOL    HW1 1490   3.115   0.466   0.698  0.4903  0.3299 -2.6574
  478SOL    HW2 1491   3.105   0.343   0.610 -1.2831 -0.7166 -1.0611
  479SOL     OW 1492   2.305   0.115   2.246  0.4837 -0.7578 -0.0159
  479SOL    HW1 1493   2.224   0.107   2.196 -0.9571  0.1336  2.0395
  479SOL    HW2 1494   2.352   0.033   2.231 -1.1449 -1.5923 -0.6836
  480SOL     OW 1495   1.438   3.880   1.982  0.2468  0.0157  0.4529
  480SOL    HW1 1496   1.473   3.889   2.070  1.3493  0.7704 -0.0463
  480SOL    HW2 1497   1.344   3.865   1.995  0.1163  1.6800  1.7154
  481SOL     OW 1498   0.221   4.279   0.707 -0.0007 -0.3516  0.1330
  481SOL    HW1 1499   0.149   4.300   0.765 -1.5352  1.9843 -2.3910
  481SOL    HW2 1500   0.259   4.363   0.683  2.0025 -1.3733 -0.5655
  482SOL     OW 1501   1.035   1.982   2.728 -0.1424  0.3280 -0.4559
  482SOL    HW1 1502   1.006   1.891   2.726  1.4976 -0.2671  0.7310
  482SOL    HW2 1503   1.129   1.978   2.710  0.6491  1.4062  2.7408
  483SOL     OW 1504   4.421   3.025   2.014  0.2094  0.0929 -0.2275
  483SOL    HW1 1505   4.477   2.949   2.029  0.9311  0.6853  0.0956
  483SOL    HW2 1506   4.395   3.053   2.102 -0.1376  0.1635 -0.3520
  484SOL     OW 1507   1.624   2.840   3.479 -0.1774  0.0927  0.1544
  484SOL    HW1 1508   1.649   2.922   3.523 -1.5292  0.0695  1.0420
  484SOL    HW2 1509   1.682   2.835   3.404 -1.5219  3.0551 -1.2561
  485SOL     OW 1510   2.945   3.026   2.347  0.0578 -0.5188 -0.1187
  485SOL    HW1 1511   2.932   2.981   2.430 -0.4659 -0.4079 -0.1371
  485SOL    HW2 1512   2.889   2.980   2.284  0.3661 -0.5349 -0.3861
  486SOL     OW 1513   0.733   4.642   4.414 -0.3804  0.2110 -0.1663
  486SOL    HW1 1514   0.749   4.725   4.460 -1.1689 -0.2432  0.9540
  486SOL    HW2 1515   0.804   4.585   4.442 -0.8358 -0.0516  0.4679
  487SOL     OW 1516   0.140   4.633   1.384  0.7797  0.0525  0.0198
  487SOL    HW1 1517   0.169   4.555   1.336  1.1747 -0.1353  0.5603
  487SOL    HW2 1518   0.165   4.706   1.326  2.8756 -0.0593  0.6843
  488SOL     OW 1519   0.148   3.129   0.966 -0.4071  0.3704 -0.2625
  488SOL    HW1 1520   0.190   3.069   0.904 -2.4046 -2.0151  0.5042
  488SOL    HW2 1521   0.054   3.110   0.958 -0.7705 -0.0588  3.3977
  489SOL     OW 1522   4.068   3.551   1.011 -0.1603 -0.2610  0.0165
  489SOL    HW1 1523   4.124   3.509   0.947 -0.4762  0.8401 -1.0323
  489SOL    HW2 1524   4.090   3.644   1.004 -1.2536  0.0445  0.4376
  490SOL     OW 1525   4.563   1.084   4.816  0.1363  0.0871 -0.2481
  490SOL    HW1 1526   4.541   1.004   4.863  0.2416  0.8158  1.1048
  490SOL    HW2 1527   4.479   1.118   4.786  0.0235 -0.1697 -0.2281
  491SOL     OW 1528   0.766   4.212   0.353 -0.1216  0.1263 -0.7022
  491SOL    HW1 1529   0.814   4.264   0.289  3.0409 -2.1556 -0.4642
  491SOL    HW2 1530   0.692   4.175   0.305  1.2048 -0.1650 -2.6085
  492SOL     OW 1531   0.027   0.721   1.953  0.4065  0.1694  0.1883
  492SOL    HW1 1532   0.117   0.752   1.959  0.8507 -0.9337 -0.3477
  492SOL    HW2 1533  -0.016   0.781   1.893  0.7203  0.8222  0.6056
  493SOL     OW 1534   3.765   0.181   3.515 -0.7593 -0.1578 -0.0789
  493SOL    HW1 1535   3.852   0.177   3.476 -0.7371 -1.4856  0.0562
  493SOL    HW2 1536   3.769   0.253   3.578 -0.5805  1.5748 -1.9794
  494SOL     OW 1537   4.070   1.872   0.157  0.1586 -0.3635 -0.1233
  494SOL    HW1 1538   4.104   1.824   0.082 -2.3740  0.8094 -2.1798
  494SOL    HW2 1539   4.105   1.961   0.148 -1.8351  0.3885 -1.3049
  495SOL     OW 1540   2.288   3.073   1.917 -0.2283  0.2654  0.0329
  495SOL    HW1 1541   2.211   3.116   1.956 -0.4329 -0.8663  0.9483
  495SOL    HW2 1542   2.252   3.019   1.847 -0.2685 -0.2202  0.4239
  496SOL     OW 1543   3.511   3.162   1.290  0.1765  0.2969 -0.5102
  496SOL    HW1 1544   3.511   3.119   1.376 -0.3197  3.1702  1.0676
  496SOL    HW2 1545   3.603   3.162   1.263  0.5661  0.5687  0.7308
  497SOL     OW 1546   3.541   0.889   0.239 -0.0770 -0.4623 -0.3665
  497SOL    HW1 1547   3.478   0.830   0.279 -1.0129  0.0364 -1.0795
  497SOL    HW2 1548   3.624   0.867   0.281 -0.8686 -0.5207  1.2449
  498SOL     OW 1549   3.267   0.734   0.354  0.0053  0.0938 -0.4845
  498SOL    HW1 1550   3.195   0.737   0.417 -0.1058  2.7674 -0.6182
  498SOL    HW2 1551   3.236   0.677   0.284 -1.8128  0.7950 -0.3017
  499SOL     OW 1552   1.751   2.763   4.251  0.4893 -0.0165  0.3336
  499SOL    HW1 1553   1.804   2.805   4.184  0.5202  0.0087  0.3736
  499SOL    HW2 1554   1.796   2.680   4.269  0.7315  0.1759  0.6419
  500SOL     OW 1555   1.682   0.915   4.040  0.5057  0.3113  0.5034
  500SOL    HW1 1556   1.720   0.870   3.965 -1.1625  0.7816 -0.6772
  500SOL    HW2 1557   1.604   0.957   4.006 -0.4710  0.3044  2.5807
  501SOL     OW 1558   0.250   4.424   1.265  0.3886  0.7897  0.4221
  501SOL    HW1 1559   0.305   4.393   1.337  1.9423  2.4747  0.0367
  501SOL    HW2 1560   0.306   4.416   1.187 -0.7338  0.4054 -0.3713
  502SOL     OW 1561   4.543   3.450   2.184  0.0686 -0.1238 -0.3954
  502SOL    HW1 1562   4.602   3.382   2.216 -1.7284 -1.4013  0.3660
  502SOL    HW2 1563   4.471   3.452   2.247 -1.8056 -0.1821 -2.3956
  503SOL     OW 1564   4.506   2.563   3.296 -0.3432 -0.7733  0.0693
  503SOL    HW1 1565   4.514   2.547   3.202  1.0026  0.1443  0.0004
  503SOL    HW2 1566   4.590   2.600   3.322 -0.9280 -0.3494  1.5094
  504SOL     OW 1567   4.480   2.271   4.350 -0.2040 -0.1436 -0.1369
  504SOL    HW1 1568   4.456   2.255   4.442 -0.5150 -0.1987 -0.2257
  504SOL    HW2 1569   4.543   2.343   4.354 -0.0292 -0.3116  0.1395
  505SOL     OW 1570   2.745   3.153   3.495 -0.2018 -0.1795  0.3456
  505SOL    HW1 1571   2.769   3.077   3.549 -0.5301 -0.2931  0.3347
  505SOL    HW2 1572   2.742   3.226   3.556 -1.5123 -0.4800  0.6761
  506SOL     OW 1573   2.018   3.901   2.726 -0.0782  0.0259 -0.1062
  506SOL    HW1 1574   1.984   3.834   2.666 -1.1372 -0.8267  1.3938
  506SOL    HW2 1575   2.092   3.939   2.679 -0.0378 -1.5390 -1.4058
  507SOL     OW 1576   1.055   2.421   0.115 -0.1179 -0.3986 -0.0657
  507SOL    HW1 1577   1.032   2.506   0.154 -1.5218 -0.2664 -1.1196
  507SOL    HW2 1578   1.145   2.433   0.085 -0.9585  1.5172 -2.1572
  508SOL     OW 1579   3.917   0.432   2.846  0.2943 -0.3032 -0.1285
  508SOL    HW1 1580   3.877   0.369   2.786 -0.2382  0.9422 -1.1282
  508SOL    HW2 1581   3.844   0.475   2.889  0.6697 -0.9685  1.2264
  509SOL     OW 1582   1.969   3.359   1.796  0.0956 -0.0124  0.2623
  509SOL    HW1 1583   2.061   3.359   1.823  0.1090 -1.0438  0.2380
  509SOL    HW2 1584   1.968   3.408   1.713  0.7975 -0.9210 -0.2959
  510SOL     OW 1585   0.729   1.425   1.400 -0.1406 -0.3397 -0.0820
  510SOL    HW1 1586   0.753   1.409   1.491  0.9751  1.5683  0.0219
  510SOL    HW2 1587   0.812   1.425   1.352 -0.6077 -0.2761 -0.9252
  511SOL     OW 1588   1.251   4.579   3.772  0.6133  0.0173  0.1357
  511SOL    HW1 1589   1.223   4.502   3.821  1.1656 -1.4063 -1.6457
  511SOL    HW2 1590   1.295   4.634   3.837 -1.0917 -0.4349  1.7551
  512SOL     OW 1591   3.681   2.489   2.076  0.4144  0.2688 -0.3110
  512SOL    HW1 1592   3.712   2.412   2.123 -0.0627 -0.2772 -0.8748
  512SOL    HW2 1593   3.753   2.551   2.082  0.4926  0.0948  0.8497
  513SOL     OW 1594   4.841   0.102   0.803  0.4085 -0.2011 -0.3892
  513SOL    HW1 1595   4.802   0.068   0.884  0.4048 -0.5943 -0.5531
  513SOL    HW2 1596   4.767   0.118   0.745  0.3251  0.9761  0.0022
  514SOL     OW 1597   3.512   3.259   0.692  0.4123  0.3190 -0.2943
  514SOL    HW1 1598   3.426   3.299   0.679  0.6136  1.3043  1.0968
  514SOL    HW2 1599   3.515   3.241   0.786  1.6406  0.1210 -0.3582
  515SOL     OW 1600   0.985   1.653   2.671  0.3361 -0.2128  0.1576
  515SOL    HW1 1601   1.077   1.634   2.650  1.3434  1.3070  2.7508
  515SOL    HW2 1602   0.963   1.591   2.740 -0.1185  0.3693  0.5406
  516SOL     OW 1603   3.369   4.293   0.551  0.0997  0.0896  0.8884
  516SOL    HW1 1604   3.343   4.250   0.632  0.9790  2.0754  2.3188
  516SOL    HW2 1605   3.464   4.286   0.549  0.1054  0.2647  0.1265
  517SOL     OW 1606   4.540   0.738   3.651 -0.0575 -0.3719 -0.2004
  517SOL    HW1 1607   4.511   0.800   3.584  1.3933  0.0472 -0.4767
  517SOL    HW2 1608   4.560   0.657   3.603 -0.1357 -0.4475 -0.1073
  518SOL     OW 1609   4.441   4.331   2.390 -0.2218  0.7510  0.6132
  518SOL    HW1 1610   4.362   4.355   2.439  0.4382  1.0790  1.5367
  518SOL    HW2 1611   4.445   4.236   2.395 -0.1107  0.7874  1.2853
  519SOL     OW 1612   2.232   1.080   4.735 -0.2729 -0.2966 -0.1175
  519SOL    HW1 1613   2.214   1.021   4.808  0.4918 -0.5037 -0.0869
  519SOL    HW2 1614   2.297   1.141   4.769  1.7903 -1.7382 -1.2357
  520SOL     OW 1615   2.781   2.011   0.561  0.2927 -0.2686 -0.3086
  520SOL    HW1 1616   2.692   2.006   0.528 -0.6101  1.2666  1.7180
  520SOL    HW2 1617   2.827   2.067   0.498 -0.6429  0.3933 -0.4087
  521SOL     OW 1618   3.673   4.244   1.144 -0.3573 -0.0140  0.1099
  521SOL    HW1 1619   3.636   4.200   1.220  1.1474  0.4191  1.1418
  521SOL    HW2 1620   3.639   4.334   1.150 -0.7278 -0.1360 -0.0955
  522SOL     OW 1621   3.373   3.604   3.926  0.1911 -0.7841  0.3210
  522SOL    HW1 1622   3.337   3.587   3.839 -1.1018  0.1070  0.6456
  522SOL    HW2 1623   3.379   3.518   3.966  0.1820 -1.1388 -0.4142
  523SOL     OW 1624   4.639   1.937   2.619  0.3039 -0.1337  0.0209
  523SOL    HW1 1625   4.612   1.892   2.699 -0.1748 -0.1845 -0.1654
  523SOL    HW2 1626   4.557   1.958   2.575  0.5899 -0.9151 -0.9071
  524SOL     OW 1627   0.654   2.057   1.340  0.0518 -0.2251 -0.2282
  524SOL    HW1 1628   0.623   2.137   1.298 -0.4523 -1.1711 -1.7285
  524SOL    HW2 1629   0.749   2.058   1.327  0.3548  1.1889  1.7216
  525SOL     OW 1630   4.082   1.146   0.875 -0.9621 -0.0556  0.5222
  525SOL    HW1 1631   4.116   1.235   0.877 -0.7815 -0.0991 -0.3267
  525SOL    HW2 1632   4.085   1.117   0.966  2.0323 -0.3501  0.4180
  526SOL     OW 1633   1.053   1.407   2.313 -0.1349 -0.1392 -0.2213
  526SOL    HW1 1634   1.130   1.351   2.316  0.4381  0.6569  0.2210
  526SOL    HW2 1635   0.979   1.346   2.306  0.6333 -0.8768 -3.6416
  527SOL     OW 1636   2.774   2.291   3.531  0.1546  0.0414 -0.2320
  527SOL    HW1 1637   2.807   2.379   3.516 -1.1540  0.4019 -1.2094
  527SOL    HW2 1638   2.715   2.299   3.605 -1.0558  0.3169 -1.1841
  528SOL     OW 1639   0.802   0.490   1.508 -0.2905  0.1786 -0.0970
  528SOL    HW1 1640   0.820   0.444   1.589 -1.4372 -1.0773 -0.5181
  528SOL    HW2 1641   0.830   0.580   1.524  1.6523 -0.5575  0.8812
  529SOL     OW 1642   2.169   0.182   3.327 -0.2989  0.0290  0.3028
  529SOL    HW1 1643   2.097   0.153   3.271 -1.6048  2.1978  0.7411
  529SOL    HW2 1644   2.248   0.158   3.279 -1.3508  0.8206 -1.9595
  530SOL     OW 1645   2.751   0.527   1.305  0.3821 -0.3581 -0.2236
  530SOL    HW1 1646   2.710   0.506   1.221  1.6960  0.6265 -1.1480
  530SOL    HW2 1647   2.701   0.601   1.339 -1.5379 -2.1103  0.9698
  531SOL     OW 1648   3.630   4.395   2.683  0.2493 -0.4843  0.3735
  531SOL    HW1 1649   3.602   4.444   2.761 -0.6796 -1.7269  0.8393
  531SOL    HW2 1650   3.672   4.317   2.718 -0.7783 -1.3904 -0.3606
  532SOL     OW 1651   4.097   2.279   2.016 -0.1521  0.0759  0.4619
  532SOL    HW1 1652   4.010   2.255   1.984 -0.1203 -0.2830  0.6393
  532SOL    HW2 1653   4.148   2.198   2.011  0.0815  0.2096  0.6526
  533SOL     OW 1654   1.383   4.932   1.722 -0.4084  0.1561  0.0818
  533SOL    HW1 1655   1.383   4.893   1.634  1.0867 -1.4707  0.7454
  533SOL    HW2 1656   1.382   4.857   1.781  0.3540  1.1857  1.4467
  534SOL     OW 1657   1.691   2.195   4.199 -0.3777  0.1948  0.1097
  534SOL    HW1 1658   1.616   2.210   4.142  0.5537  2.3774 -0.6865
  534SOL    HW2 1659   1.727   2.112   4.171 -0.5191  0.7536 -1.8723
  535SOL     OW 1660   1.543   2.268   3.464  0.1850  0.2565  0.1045
  535SOL    HW1 1661   1.478   2.197   3.470 -0.8371  1.1688  0.1860
  535SOL    HW2 1662   1.535   2.300   3.374  1.9211 -0.8742 -0.4982
  536SOL     OW 1663   1.098   1.506   1.250  0.1887  0.5110  0.2798
  536SOL    HW1 1664   1.051   1.589   1.260 -0.7344  0.0661 -0.1857
  536SOL    HW2 1665   1.109   1.496   1.156  1.4310  0.7026  0.3905
  537SOL     OW 1666   1.039   2.997   0.280 -0.3448  0.0135 -0.3234
  537SOL    HW1 1667   0.952   3.026   0.308 -0.0726 -0.6735  1.3088
  537SOL    HW2 1668   1.075   2.951   0.356  1.7539  0.9348 -0.6904
  538SOL     OW 1669   1.096   0.932   3.529  1.1574  0.3305 -0.0418
  538SOL    HW1 1670   1.166   0.986   3.564  2.1944 -0.8418 -0.2094
  538SOL    HW2 1671   1.116   0.924   3.435  1.1794 -0.5197  0.0216
  539SOL     OW 1672   2.189   2.171   2.630 -0.0979  0.2560  0.2316
  539SOL    HW1 1673   2.244   2.245   2.603 -0.7665  0.5949 -0.2183
  539SOL    HW2 1674   2.213   2.157   2.722  1.5622 -0.3522 -0.2603
  540SOL     OW 1675   2.788   1.355   3.093  0.3425  0.1512  0.0170
  540SOL    HW1 1676   2.757   1.275   3.137 -0.8517 -1.2734 -3.1486
  540SOL    HW2 1677   2.883   1.350   3.101  0.3086 -1.6714 -0.1336
  541SOL     OW 1678   3.180   0.882   4.535  0.1129  0.0858  0.2578
  541SOL    HW1 1679   3.264   0.841   4.514  0.4778 -0.1858  2.1168
  541SOL    HW2 1680   3.189   0.911   4.626 -1.1917  1.6506 -0.0661
  542SOL     OW 1681   0.306   2.330   0.053  0.0111 -0.6308 -0.4681
  542SOL    HW1 1682   0.227   2.313   0.103 -0.2866 -0.3411 -0.8293
  542SOL    HW2 1683   0.306   2.425   0.040  0.0343 -0.7086 -1.0796
  543SOL     OW 1684   0.824   2.191   4.351  0.8224  0.5467 -0.5240
  543SOL    HW1 1685   0.732   2.172   4.332  0.7962  1.3255 -1.2494
  543SOL    HW2 1686   0.831   2.286   4.341  1.1030  0.9031  2.2656
  544SOL     OW 1687   1.904   2.440   3.030  0.1697 -0.0554 -0.3077
  544SOL    HW1 1688   1.906   2.404   2.941  1.0103  0.2935 -0.4424
  544SOL    HW2 1689   1.812   2.460   3.046 -0.3321 -2.2354 -0.2288
  545SOL     OW 1690   4.454   0.658   2.258 -0.0190  0.7991 -0.4798
  545SOL    HW1 1691   4.496   0.600   2.194 -0.9204  0.2145 -0.5575
  545SOL    HW2 1692   4.373   0.686   2.216 -0.9134 -0.0615  0.6182
  546SOL     OW 1693   0.682   3.453   4.892  0.3708  0.0206 -0.3458
  546SOL    HW1 1694   0.647   3.392   4.956  0.4092  1.5125  1.1454
  546SOL    HW2 1695   0.613   3.460   4.826  0.9164 -2.6562 -1.3459
  547SOL     OW 1696   2.042   3.222   0.804 -0.2890 -0.5385 -0.6662
  547SOL    HW1 1697   2.042   3.224   0.708 -0.7226 -1.4968 -0.6955
  547SOL    HW2 1698   1.951   3.239   0.828 -0.3301 -1.0788 -0.4451
  548SOL     OW 1699   2.476   3.507   1.832  0.1756  0.0065 -0.1874
  548SOL    HW1 1700   2.415   3.571   1.796  0.1134  1.5923  2.4805
  548SOL    HW2 1701   2.518   3.468   1.756 -1.1752  1.8433 -1.9705
  549SOL     OW 1702   0.182   4.772   3.639 -0.3679 -0.8440  0.5344
  549SOL    HW1 1703   0.213   4.820   3.715 -0.8734  0.0956  0.1638
  549SOL    HW2 1704   0.262   4.742   3.595 -0.0449 -3.2038  2.4789
  550SOL     OW 1705   2.402   1.799   4.521 -0.3831 -0.0100  0.0276
  550SOL    HW1 1706   2.477   1.748   4.490 -1.1478 -1.8265  0.9993
  550SOL    HW2 1707   2.438   1.885   4.543  0.9517 -0.0688 -1.7332
  551SOL     OW 1708   4.070   4.144   1.439  0.2146  0.0938  0.0461
  551SOL    HW1 1709   4.092   4.127   1.530  1.5577 -0.9050 -0.4293
  551SOL    HW2 1710   4.136   4.207   1.409  0.1292 -0.0221 -0.3993
  552SOL     OW 1711   3.932   3.823   2.295 -0.2562 -0.1800  0.4115
  552SOL    HW1 1712   4.016   3.863   2.275  0.0526 -0.9680  0.0727
  552SOL    HW2 1713   3.869   3.871   2.242  0.3107 -1.1002 -1.1487
  553SOL     OW 1714   2.440   2.500   4.714  0.0923 -0.5403  0.0231
  553SOL    HW1 1715   2.406   2.455   4.637  0.1126 -0.9889  0.2771
  553SOL    HW2 1716   2.483   2.579   4.679 -0.8432 -0.1796 -0.3343
  554SOL     OW 1717   0.072   4.551   0.395  0.5079 -0.2486 -0.6622
  554SOL    HW1 1718   0.091   4.470   0.441 -1.2143 -0.1508  0.3215
  554SOL    HW2 1719   0.049   4.523   0.306  0.6700 -0.7509 -0.5499
  555SOL     OW 1720   2.930   4.022   1.165 -0.2383  0.3138 -0.1947
  555SOL    HW1 1721   2.916   3.985   1.078 -2.6744  0.3305  0.1180
  555SOL    HW2 1722   2.935   3.946   1.223 -0.1790  0.3439 -0.1599
  556SOL     OW 1723   1.378   3.004   4.679  0.2559 -0.6411 -0.0263
  556SOL    HW1 1724   1.435   3.078   4.702 -0.2850 -0.0440 -0.5482
  556SOL    HW2 1725   1.427   2.956   4.613 -1.8488  2.9241 -4.7967
  557SOL     OW 1726   1.891   3.965   2.082 -0.3270  0.1556  0.1491
  557SOL    HW1 1727   1.819   4.019   2.116 -0.8710 -0.0755 -0.6314
  557SOL    HW2 1728   1.925   4.013   2.007 -0.4291 -0.3071 -0.1960
  558SOL     OW 1729   4.721   4.125   2.297 -0.5941  0.0416 -0.0247
  558SOL    HW1 1730   4.642   4.095   2.342  0.2879 -0.0603  1.4991
  558SOL    HW2 1731   4.750   4.050   2.246 -1.2893 -0.0268 -0.3271
  559SOL     OW 1732   1.226   4.931   2.949 -0.1528  0.5221 -0.1016
  559SOL    HW1 1733   1.300   4.977   2.908 -0.1689  1.2295  0.6407
  559SOL    HW2 1734   1.267   4.870   3.010 -0.1691  0.4584 -0.1538
  560SOL     OW 1735   0.706   0.844   3.399  0.2965  0.0567 -0.0639
  560SOL    HW1 1736   0.692   0.805   3.485 -0.3895 -2.0274 -1.0484
  560SOL    HW2 1737   0.635   0.906   3.388  0.5142  0.5020  0.9356
  561SOL     OW 1738   4.114   3.629   2.690 -0.8262  0.5590  0.2157
  561SOL    HW1 1739   4.044   3.686   2.660 -1.1429 -0.6028 -1.4090
  561SOL    HW2 1740   4.069   3.548   2.716 -0.2872  0.6106  1.3474
  562SOL     OW 1741   4.290   4.062   1.667  0.0824  0.2087  0.1175
  562SOL    HW1 1742   4.231   3.996   1.704 -0.5944  1.1854  0.8411
  562SOL    HW2 1743   4.301   4.127   1.737  1.0607  0.6576 -0.4289
  563SOL     OW 1744   1.328   0.188   4.353  0.0823  0.7079 -0.2049
  563SOL    HW1 1745   1.243   0.202   4.311  0.4498  0.9141 -0.8962
  563SOL    HW2 1746   1.392   0.207   4.284  0.6997  1.0793  0.4574
  564SOL     OW 1747   4.233   4.287   1.082  0.1709  0.0193  0.0756
  564SOL    HW1 1748   4.165   4.222   1.067 -1.2722  1.5674 -0.2952
  564SOL    HW2 1749   4.272   4.263   1.166 -0.8089 -0.9004  0.2754
  565SOL     OW 1750   0.897   0.214   2.570 -0.0176 -0.9857  0.0294
  565SOL    HW1 1751   0.965   0.160   2.610 -0.2700 -0.3323  1.4142
  565SOL    HW2 1752   0.911   0.205   2.476  0.7461 -2.4103  0.2572
  566SOL     OW 1753   2.017   2.189   3.716  0.2336 -0.5730 -0.0415
  566SOL    HW1 1754   1.947   2.247   3.747  2.9525  1.7882  2.1765
  566SOL    HW2 1755   2.043   2.227   3.632 -0.2733 -0.6743 -0.2468
  567SOL     OW 1756   2.323   3.628   4.536 -0.5904  0.5100 -1.1151
  567SOL    HW1 1757   2.368   3.632   4.620 -0.2504 -0.8147 -1.2111
  567SOL    HW2 1758   2.318   3.720   4.507 -0.3550  0.9408  0.1448
  568SOL     OW 1759   1.176   0.931   3.220  0.1486 -0.2115  0.1302
  568SOL    HW1 1760   1.181   1.012   3.169  1.7346  1.2521  2.4030
  568SOL    HW2 1761   1.084   0.904   3.214 -0.6220  2.2021 -0.1052
  569SOL     OW 1762   3.824   1.228   4.841  0.1783  0.0376 -0.1582
  569SOL    HW1 1763   3.874   1.309   4.832  0.0428 -0.0130 -1.6480
  569SOL    HW2 1764   3.788   1.231   4.929 -2.0985  2.9353 -1.0585
  570SOL     OW 1765   1.312   1.935   2.718 -0.4489 -0.1137  0.0547
  570SOL    HW1 1766   1.381   1.938   2.785  0.3632 -1.6194 -0.6520
  570SOL    HW2 1767   1.356   1.958   2.637 -0.9049 -0.5553 -0.3255
  571SOL     OW 1768   4.778   2.915   4.419  0.1327 -0.2560  0.5337
  571SOL    HW1 1769   4.726   2.898   4.340  0.7498 -0.1729  0.1062
  571SOL    HW2 1770   4.734   2.989   4.460  0.5887  0.5912 -0.4580
  572SOL     OW 1771   4.534   2.276   3.933  0.4939  0.3454  0.8228
  572SOL    HW1 1772   4.625   2.268   3.907  0.1952  0.9298 -0.4972
  572SOL    HW2 1773   4.485   2.265   3.852 -0.6418 -0.4021  1.5800
  573SOL     OW 1774   3.346   4.895   0.382 -0.3753  0.8984 -0.2616
  573SOL    HW1 1775   3.401   4.891   0.461 -0.9420  0.4720  0.1229
  573SOL    HW2 1776   3.408   4.897   0.309  0.1552  1.5423  0.2071
  574SOL     OW 1777   0.821   1.467   4.365 -0.4153 -0.4801 -1.3538
  574SOL    HW1 1778   0.824   1.556   4.330 -0.0791 -0.2710 -0.8076
  574SOL    HW2 1779   0.766   1.473   4.443  0.3832 -0.5528 -0.7769
  575SOL     OW 1780   0.023   1.121   2.008  0.6583 -0.0938  0.5426
  575SOL    HW1 1781   0.077   1.137   1.930  0.0797  1.6682  0.4608
  575SOL    HW2 1782  -0.066   1.116   1.974  0.6270 -2.3879  0.7580
  576SOL     OW 1783   0.235   0.923   2.204  0.2988 -0.2044  0.1049
  576SOL    HW1 1784   0.162   0.983   2.185 -0.0428 -1.3408 -2.6952
  576SOL    HW2 1785   0.249   0.932   2.298 -2.9022  0.6943  0.6339
  577SOL     OW 1786   4.069   1.841   2.929  0.2357 -0.5824  0.5484
  577SOL    HW1 1787   4.029   1.922   2.900 -0.0346 -1.7229 -2.5995
  577SOL    HW2 1788   4.163   1.859   2.931  0.2566 -0.3963 -1.0445
  578SOL     OW 1789   3.048   0.773   0.531 -0.3777 -0.1772  0.1609
  578SOL    HW1 1790   3.024   0.864   0.546  0.2197 -0.0961  0.6768
  578SOL    HW2 1791   2.994   0.724   0.593  0.2940 -0.0528  0.8512
  579SOL     OW 1792   0.133   4.225   2.164 -0.2909 -0.2479  0.1500
  579SOL    HW1 1793   0.084   4.229   2.082 -0.5230 -1.1390  0.2347
  579SOL    HW2 1794   0.074   4.260   2.230 -1.5377 -2.9237  0.5633
  580SOL     OW 1795   2.832   3.477   2.967 -0.2220 -0.1014  0.0900
  580SOL    HW1 1796   2.872   3.453   3.050  0.5691  0.2363 -0.1782
  580SOL    HW2 1797   2.739   3.456   2.977 -0.1121 -0.1683  1.0125
  581SOL     OW 1798   0.485   3.028   1.589  0.1307  0.1204  0.4267
  581SOL    HW1 1799   0.524   3.009   1.675 -0.6241 -1.7143  0.4054
  581SOL    HW2 1800   0.511   2.954   1.534 -1.7189 -0.1841 -0.1225
  582SOL     OW 1801   2.408   4.833   2.199  0.6912  0.0823  0.2212
  582SOL    HW1 1802   2.363   4.777   2.136 -0.5773 -0.3102  1.4278
  582SOL    HW2 1803   2.441   4.773   2.265  0.3484  0.6330  0.9098
  583SOL     OW 1804   0.447   0.751   4.155 -0.4083  0.1367 -0.4370
  583SOL    HW1 1805   0.415   0.822   4.100  2.1950 -0.4281 -2.9162
  583SOL    HW2 1806   0.407   0.672   4.119 -0.4918 -0.0039 -0.0397
  584SOL     OW 1807   2.313   2.593   3.638  0.4608  0.0868 -0.0933
  584SOL    HW1 1808   2.221   2.568   3.647  0.5745 -0.8091 -1.1096
  584SOL    HW2 1809   2.310   2.676   3.591  0.1614 -0.3098 -0.8132
  585SOL     OW 1810   4.874   0.538   0.252  0.3452 -0.1398  0.0902
  585SOL    HW1 1811   4.830   0.512   0.333  1.2378  0.7203  0.8846
  585SOL    HW2 1812   4.803   0.553   0.190 -0.3583 -0.8099  0.7082
  586SOL     OW 1813   4.499   4.717   1.180 -0.3751  0.3773 -0.5300
  586SOL    HW1 1814   4.420   4.686   1.136 -0.2212  0.1761 -0.6716
  586SOL    HW2 1815   4.570   4.697   1.118 -0.3224  1.4924 -0.8446
  587SOL     OW 1816   2.049   3.600   1.634  0.1810  0.3776  0.1427
  587SOL    HW1 1817   2.057   3.669   1.700  1.3747  0.1727  0.2364
  587SOL    HW2 1818   2.130   3.606   1.584 -0.5405  0.2789 -1.0729
  588SOL     OW 1819   1.310   3.409   3.655 -0.1770  0.2771  0.1232
  588SOL    HW1 1820   1.224   3.436   3.623  0.9452  1.8617 -1.7673
  588SOL    HW2 1821   1.302   3.413   3.750 -2.3670 -0.2712  0.0144
  589SOL     OW 1822   2.581   3.783   0.121  0.1149 -0.3354  0.0959
  589SOL    HW1 1823   2.672   3.761   0.142  0.8742  0.6253 -1.9708
  589SOL    HW2 1824   2.534   3.700   0.129  1.3109 -0.9977  0.4873
  590SOL     OW 1825   0.017   3.717   3.494  0.2318  0.9707  0.4853
  590SOL    HW1 1826  -0.024   3.774   3.428  0.4466 -0.1285 -0.6462
  590SOL    HW2 1827   0.108   3.711   3.467  0.2069  0.0798  0.5683
  591SOL     OW 1828   1.294   3.485   2.564  0.4611 -0.0462  0.1395
  591SOL    HW1 1829   1.234   3.554   2.535 -0.2288 -0.4975  0.4569
  591SOL    HW2 1830   1.243   3.434   2.628  0.9157 -0.9210 -0.1791
  592SOL     OW 1831   4.130   3.623   2.348  0.2509 -0.2740 -0.5519
  592SOL    HW1 1832   4.147   3.631   2.442 -0.8688 -0.4957 -0.3217
  592SOL    HW2 1833   4.054   3.679   2.333  1.2960  0.9238 -1.6080
  593SOL     OW 1834   2.880   3.655   2.715  1.2822  0.0923 -0.1047
  593SOL    HW1 1835   2.869   3.573   2.763 -3.2751  1.7821  2.3699
  593SOL    HW2 1836   2.829   3.642   2.635 -0.8468  0.8387  1.0408
  594SOL     OW 1837   2.047   2.685   3.067  0.2301  0.0502  0.7400
  594SOL    HW1 1838   2.021   2.595   3.087  1.8083 -0.8743 -0.9859
  594SOL    HW2 1839   1.984   2.715   3.002  0.7477 -0.5074 -0.0373
  595SOL     OW 1840   0.375   4.308   1.478 -0.2653 -0.6281 -0.0975
  595SOL    HW1 1841   0.347   4.220   1.503 -0.4477 -0.4107  0.4825
  595SOL    HW2 1842   0.400   4.349   1.560 -1.7833  0.4384 -0.1300
  596SOL     OW 1843   4.522   0.697   2.949  0.5623  0.3814 -0.1167
  596SOL    HW1 1844   4.584   0.628   2.923  1.9349  1.6844 -0.4459
  596SOL    HW2 1845   4.543   0.770   2.891 -2.8433  0.1764 -1.8391
  597SOL     OW 1846   2.643   0.033   2.464  0.4340  0.1729  0.3806
  597SOL    HW1 1847   2.641   0.074   2.378  0.5412  0.5241  0.5449
  597SOL    HW2 1848   2.671  -0.057   2.447 -0.6109 -0.0815 -0.0713
  598SOL     OW 1849   4.169   0.951   4.530  0.3293  0.3499  0.0271
  598SOL    HW1 1850   4.212   1.001   4.461  0.7671 -1.4420 -1.0470
  598SOL    HW2 1851   4.082   0.931   4.494 -0.5998  1.9194  1.2360
  599SOL     OW 1852   0.906   0.099   0.652 -0.2543 -0.2509  0.1537
  599SOL    HW1 1853   0.948   0.099   0.737  0.3617  0.3720 -0.1430
  599SOL    HW2 1854   0.915   0.189   0.620 -0.6025 -0.4409 -0.5020
  600SOL     OW 1855   4.391   3.897   0.112 -0.5719 -0.5112  0.3451
  600SOL    HW1 1856   4.366   3.887   0.203  0.5690  0.4111  0.7907
  600SOL    HW2 1857   4.452   3.971   0.112 -0.3541 -0.6579 -1.1227
  601SOL     OW 1858   1.774   1.363   3.363 -0.3776  0.4781  0.0853
  601SOL    HW1 1859   1.805   1.376   3.453  2.0806  0.6985 -0.7361
  601SOL    HW2 1860   1.795   1.271   3.344 -1.0067  0.3964 -0.2551
  602SOL     OW 1861   1.026   3.439   0.932 -0.1880  0.1984 -0.0421
  602SOL    HW1 1862   1.010   3.378   1.003 -0.0478 -1.5040 -1.4027
  602SOL    HW2 1863   1.089   3.502   0.967 -0.6177 -0.2101  1.5138
  603SOL     OW 1864   3.543   1.381   1.221 -0.0082  0.5945  0.4405
  603SOL    HW1 1865   3.558   1.396   1.127 -0.4282  0.6632  0.3840
  603SOL    HW2 1866   3.526   1.469   1.256 -1.5954  0.3732  0.2678
  604SOL     OW 1867   2.549   4.579   0.760 -0.0171 -0.2582 -0.2568
  604SOL    HW1 1868   2.566   4.546   0.672  0.8853  0.6248 -0.4308
  604SOL    HW2 1869   2.461   4.615   0.756  0.1490  0.0776 -0.8928
  605SOL     OW 1870   4.628   1.247   1.285 -0.0643  0.5613 -0.1991
  605SOL    HW1 1871   4.637   1.281   1.196  0.5948  0.8066 -0.0458
  605SOL    HW2 1872   4.597   1.322   1.336  2.6821  1.3675  0.4065
  606SOL     OW 1873   4.983   0.757   1.199  0.6361 -0.0748  0.0008
  606SOL    HW1 1874   4.922   0.699   1.245  0.3751 -1.0069 -1.4576
  606SOL    HW2 1875   5.007   0.709   1.120  0.6315  1.6835 -1.1240
  607SOL     OW 1876   4.850   3.100   3.928 -0.1656 -0.5036 -0.1359
  607SOL    HW1 1877   4.922   3.067   3.874  0.6516 -1.1670  1.2978
  607SOL    HW2 1878   4.893   3.159   3.990 -0.8930 -0.7362  0.5942
  608SOL     OW 1879   1.044   2.047   3.351 -0.0863 -0.5753  0.0328
  608SOL    HW1 1880   0.957   2.070   3.317 -0.4902 -1.7904  0.1984
  608SOL    HW2 1881   1.078   1.984   3.288  2.1486  2.2849 -1.9101
  609SOL     OW 1882   0.522   3.326   2.718  0.0292 -0.0480 -0.1979
  609SOL    HW1 1883   0.567   3.283   2.790 -1.0589 -0.9091 -0.0129
  609SOL    HW2 1884   0.552   3.280   2.639  1.6577  1.2634 -0.3894
  610SOL     OW 1885   0.444   4.723   2.963 -0.4223  0.3186  0.0119
  610SOL    HW1 1886   0.501   4.800   2.956 -0.1633  0.3713  2.1828
  610SOL    HW2 1887   0.380   4.746   3.030 -0.4148 -1.3020  0.6201
  611SOL     OW 1888   0.452   3.544   1.840 -0.5082  0.0640 -0.2735
  611SOL    HW1 1889   0.444   3.585   1.754 -2.6292 -0.2868 -0.2873
  611SOL    HW2 1890   0.435   3.615   1.902  0.4099  0.1782 -0.1313
  612SOL     OW 1891   3.795   3.901   0.882  0.0939 -0.0023  0.3922
  612SOL    HW1 1892   3.887   3.874   0.878  0.2014  0.4836 -1.8854
  612SOL    HW2 1893   3.799   3.990   0.918  0.6186  0.3401 -0.4799
  613SOL     OW 1894   4.604   3.219   0.112  0.1921  0.3879  0.0731
  613SOL    HW1 1895   4.667   3.290   0.120  2.9282 -1.5320 -2.2941
  613SOL    HW2 1896   4.658   3.140   0.101 -2.6428 -1.5984 -0.7376
  614SOL     OW 1897   2.856   3.764   4.892  0.0349 -0.4841 -0.2259
  614SOL    HW1 1898   2.782   3.823   4.906  0.0961 -0.6268  0.8120
  614SOL    HW2 1899   2.847   3.698   4.962  0.2239 -1.4345 -1.0741
  615SOL     OW 1900   0.723   2.827   4.548  0.0784 -0.2355 -0.5151
  615SOL    HW1 1901   0.778   2.862   4.618  0.8884 -3.1651  0.4670
  615SOL    HW2 1902   0.638   2.867   4.561  0.9381  1.3845  0.4085
  616SOL     OW 1903   2.211   4.138   4.110  0.0403  0.2349 -0.5627
  616SOL    HW1 1904   2.301   4.136   4.142 -0.3496  1.6487  0.7705
  616SOL    HW2 1905   2.160   4.173   4.183 -1.1433  2.2094 -2.1855
  617SOL     OW 1906   2.229   1.096   4.028 -0.0392 -0.5955  0.7362
  617SOL    HW1 1907   2.248   1.003   4.040 -0.3374 -0.5822  1.3832
  617SOL    HW2 1908   2.230   1.133   4.116  2.8984  0.6216  0.3240
  618SOL     OW 1909   1.421   4.316   4.725  0.2190 -0.0563  0.5492
  618SOL    HW1 1910   1.455   4.245   4.670 -0.0161  0.8482 -0.8035
  618SOL    HW2 1911   1.402   4.274   4.808  0.9204 -1.4007  0.0627
  619SOL     OW 1912   2.809   0.060   2.697  0.5199 -0.6012 -0.0517
  619SOL    HW1 1913   2.760   0.039   2.618 -0.9264 -0.6024  0.8082
  619SOL    HW2 1914   2.743   0.063   2.766  1.7520 -0.6290  1.1685
  620SOL     OW 1915   3.495   2.445   0.578 -0.1736  0.5823 -0.5030
  620SOL    HW1 1916   3.502   2.529   0.622  1.0640 -0.3697  1.2243
  620SOL    HW2 1917   3.586   2.417   0.563 -0.4774 -1.3468  0.8462
  621SOL     OW 1918   2.030   1.594   0.239 -0.5509 -0.1942 -0.6673
  621SOL    HW1 1919   2.038   1.623   0.149 -1.5375  0.7051 -0.4866
  621SOL    HW2 1920   1.941   1.621   0.265 -0.5563 -1.0915  0.3315
  622SOL     OW 1921   0.594   4.880   1.709 -0.1986 -0.3561 -0.6558
  622SOL    HW1 1922   0.663   4.946   1.714 -0.6693  0.0735  0.3536
  622SOL    HW2 1923   0.600   4.847   1.620  1.7116 -0.7556 -0.4348
  623SOL     OW 1924   2.701   3.869   1.366  0.4737  0.3323 -0.7383
  623SOL    HW1 1925   2.738   3.805   1.305  4.4158  1.9946 -0.3836
  623SOL    HW2 1926   2.739   3.846   1.451 -1.0972  0.9533  0.1802
  624SOL     OW 1927   2.320   1.345   3.471 -0.5629  0.4727  0.0043
  624SOL    HW1 1928   2.264   1.269   3.457  0.5887 -0.2857 -0.5800
  624SOL    HW2 1929   2.398   1.329   3.418  0.3772  1.3307  1.0608
  625SOL     OW 1930   4.940   4.069   4.003 -0.4771  0.1136 -0.1390
  625SOL    HW1 1931   4.855   4.039   3.969 -1.5139  0.1721  2.2213
  625SOL    HW2 1932   4.956   4.013   4.079  1.9649 -0.3420 -0.9267
  626SOL     OW 1933   2.096   2.590   4.146  0.2320  0.6049 -0.6099
  626SOL    HW1 1934   2.013   2.543   4.146  1.5640 -2.1457 -4.0052
  626SOL    HW2 1935   2.162   2.521   4.154  2.2960  2.6265  1.1272
  627SOL     OW 1936   3.890   0.991   2.786  0.1107  0.3528 -0.6760
  627SOL    HW1 1937   3.975   0.962   2.753  0.7666  0.2384  1.0313
  627SOL    HW2 1938   3.869   1.067   2.732  1.8618  1.1046 -0.3741
  628SOL     OW 1939   0.715   4.531   2.719 -0.4152 -0.2368 -0.0847
  628SOL    HW1 1940   0.706   4.462   2.654 -0.6939 -1.6661  1.4047
  628SOL    HW2 1941   0.626   4.547   2.751 -0.2227  0.0794  0.3074
  629SOL     OW 1942   4.106   4.479   0.087 -0.1751  0.6271  0.0907
  629SOL    HW1 1943   4.036   4.542   0.068 -1.1592 -0.3529  0.3943
  629SOL    HW2 1944   4.089   4.406   0.028  0.1256  0.0416  0.7183
  630SOL     OW 1945   2.845   3.974   4.523 -0.5370  0.1877 -0.1413
  630SOL    HW1 1946   2.890   3.890   4.513 -1.2853 -0.1939 -0.3690
  630SOL    HW2 1947   2.861   4.000   4.614 -1.2906 -0.7875  0.2830
  631SOL     OW 1948   2.342   2.058   3.214  0.0140  0.0098  0.2579
  631SOL    HW1 1949   2.428   2.048   3.255  0.9037  0.2642 -1.4494
  631SOL    HW2 1950   2.341   2.149   3.183 -0.4931 -0.2537 -0.5315
  632SOL     OW 1951   3.815   1.595   4.109 -0.0281 -0.0316  0.0017
  632SOL    HW1 1952   3.783   1.515   4.067  0.8901 -0.3874 -0.0331
  632SOL    HW2 1953   3.744   1.621   4.167 -0.4643 -0.6957 -0.2189
  633SOL     OW 1954   1.181   3.657   4.877  0.1977 -0.4376 -0.0015
  633SOL    HW1 1955   1.186   3.673   4.782 -2.1030 -1.5724 -0.3863
  633SOL    HW2 1956   1.197   3.563   4.886  2.0401 -0.0662  0.9580
  634SOL     OW 1957   0.009   1.135   1.460  0.5796  0.9415 -0.6903
  634SOL    HW1 1958   0.066   1.198   1.505  0.6466 -0.3717  1.1549
  634SOL    HW2 1959   0.063   1.057   1.449 -0.7351 -0.2319  0.8591
  635SOL     OW 1960   1.494   2.480   4.691 -0.5203 -0.2403 -0.1494
  635SOL    HW1 1961   1.465   2.392   4.668 -1.4848  0.3319 -1.2387
  635SOL    HW2 1962   1.581   2.487   4.653 -0.2418 -0.8754  0.3504
  636SOL     OW 1963   3.561   3.096   3.104  0.1294 -0.0515  0.2768
  636SOL    HW1 1964   3.504   3.085   3.029  0.4446 -0.9531  0.1589
  636SOL    HW2 1965   3.505   3.132   3.172 -0.1830  0.6559 -0.3482
  637SOL     OW 1966   2.308   0.191   0.024  0.6990 -0.6366  0.0252
  637SOL    HW1 1967   2.340   0.224  -0.060  0.9771 -0.7124  0.0983
  637SOL    HW2 1968   2.385   0.192   0.080  0.2609  0.5419  0.6355
  638SOL     OW 1969   0.286   1.657   2.380  0.1908 -0.2385  0.4907
  638SOL    HW1 1970   0.278   1.604   2.460 -0.2384 -0.4253  0.3273
  638SOL    HW2 1971   0.288   1.592   2.309  0.7296 -0.0811  0.3595
  639SOL     OW 1972   2.766   4.476   2.777 -0.0221  0.0938 -0.1544
  639SOL    HW1 1973   2.700   4.481   2.708  1.3327 -0.4195 -1.5409
  639SOL    HW2 1974   2.724   4.424   2.846 -2.5769  3.2032  0.8864
  640SOL     OW 1975   4.463   2.650   0.986  0.4221 -0.0366  0.9048
  640SOL    HW1 1976   4.488   2.712   0.918  0.4273 -1.8023 -0.8008
  640SOL    HW2 1977   4.370   2.668   1.002  0.1111 -0.3023 -0.4337
  641SOL     OW 1978   0.383   0.053   2.996  0.5895 -0.2692 -0.2554
  641SOL    HW1 1979   0.476   0.028   2.993  0.5421 -0.4410 -0.2674
  641SOL    HW2 1980   0.351   0.040   2.907  0.3138 -1.1228 -0.0395
  642SOL     OW 1981   3.648   0.767   3.137 -0.5123 -0.0252  0.3308
  642SOL    HW1 1982   3.659   0.739   3.228 -0.6918 -1.3519 -0.0468
  642SOL    HW2 1983   3.722   0.826   3.121 -0.9835  0.9805  1.6041
  643SOL     OW 1984   1.600   0.807   2.881 -0.2807  0.5142 -0.8911
  643SOL    HW1 1985   1.667   0.750   2.920  1.8984  2.9226 -0.8831
  643SOL    HW2 1986   1.618   0.804   2.787 -0.3574  0.9442 -0.9182
  644SOL     OW 1987   4.095   2.958   2.632  0.2044  0.0303 -0.0090
  644SOL    HW1 1988   4.090   3.045   2.672  0.2053 -0.0942  0.2684
  644SOL    HW2 1989   4.051   2.967   2.548  0.1045  0.2723  0.0690
  645SOL     OW 1990   2.023   4.219   3.367  0.3967  0.0447 -0.2778
  645SOL    HW1 1991   1.954   4.252   3.310  0.2805  1.3078  0.5361
  645SOL    HW2 1992   2.092   4.286   3.362  0.5252  0.0096  0.7592
  646SOL     OW 1993   3.719   1.830   4.494  0.8038 -0.1714  0.2950
  646SOL    HW1 1994   3.692   1.901   4.551 -0.5451 -0.9810  0.7195
  646SOL    HW2 1995   3.787   1.868   4.438  1.0331  1.0637  1.3689
  647SOL     OW 1996   0.482   2.796   1.402  0.4195  0.2117  0.5150
  647SOL    HW1 1997   0.569   2.811   1.364 -0.4131  0.9887 -1.2166
  647SOL    HW2 1998   0.454   2.714   1.364 -0.4284  0.9973 -0.6069
  648SOL     OW 1999   0.502   4.479   2.404  0.1017 -0.0587 -0.3874
  648SOL    HW1 2000   0.543   4.406   2.449 -0.2014 -0.0180 -0.0390
  648SOL    HW2 2001   0.534   4.557   2.450 -1.2677 -0.0774  0.6626
  649SOL     OW 2002   4.442   4.708   3.261  0.2690 -0.1919 -0.0394
  649SOL    HW1 2003   4.457   4.668   3.346  0.7494  0.3711  0.1511
  649SOL    HW2 2004   4.450   4.802   3.277  0.3213 -0.0783 -0.6983
  650SOL     OW 2005   4.819   3.696   3.259 -0.2378 -0.3468  0.1610
  650SOL    HW1 2006   4.867   3.614   3.274  0.2410  0.0418  0.8213
  650SOL    HW2 2007   4.837   3.718   3.167  3.0526  1.1121  0.9935
  651SOL     OW 2008   4.726   2.619   2.793  0.0648  0.7860  0.0762
  651SOL    HW1 2009   4.782   2.568   2.734  0.9161 -0.3435  1.7799
  651SOL    HW2 2010   4.637   2.597   2.766  0.3648  2.1468 -2.2886
  652SOL     OW 2011   3.728   2.458   1.768  0.1702  0.7359  0.0452
  652SOL    HW1 2012   3.741   2.441   1.862  0.0988  1.4455  0.1909
  652SOL    HW2 2013   3.751   2.375   1.725  2.6641  1.1376  0.4730
  653SOL     OW 2014   0.982   3.155   2.370  0.5691  0.3218  0.0026
  653SOL    HW1 2015   1.071   3.122   2.379  0.7365  0.2607 -1.5176
  653SOL    HW2 2016   0.990   3.229   2.309 -0.6635 -1.0677 -1.9753
  654SOL     OW 2017   1.554   3.187   4.934  0.3484  0.4927 -0.2495
  654SOL    HW1 2018   1.602   3.110   4.905 -0.4143 -0.7594  1.5970
  654SOL    HW2 2019   1.620   3.242   4.975  0.4425 -0.7918  1.4428
  655SOL     OW 2020   2.862   2.384   2.468  0.5564 -0.8467 -0.8328
  655SOL    HW1 2021   2.775   2.344   2.473  1.0658 -1.8152  1.0098
  655SOL    HW2 2022   2.870   2.412   2.377 -2.1149  0.2941 -0.8002
  656SOL     OW 2023   3.879   3.051   3.896  0.2514  0.4916  0.2090
  656SOL    HW1 2024   3.901   3.135   3.856 -1.2504  1.9814  2.2622
  656SOL    HW2 2025   3.800   3.070   3.948 -0.1292 -2.2085  0.7329
  657SOL     OW 2026   4.650   0.814   0.230 -0.3282  0.4772  0.8048
  657SOL    HW1 2027   4.567   0.841   0.191 -1.2461 -2.6537  0.3437
  657SOL    HW2 2028   4.631   0.810   0.324 -0.3616  0.8140  0.8145
  658SOL     OW 2029   0.135   2.118   2.875  0.5340 -0.2806 -0.6733
  658SOL    HW1 2030   0.169   2.104   2.963  0.6020  1.3921 -0.4153
  658SOL    HW2 2031   0.054   2.167   2.888  0.2077 -0.5819 -1.5135
  659SOL     OW 2032   2.145   1.842   0.918 -0.3742  0.3807 -0.2003
  659SOL    HW1 2033   2.178   1.924   0.954  0.7026 -0.7839  1.7100
  659SOL    HW2 2034   2.085   1.809   0.985  0.6788 -1.2486  0.0123
  660SOL     OW 2035   4.718   0.183   3.830  0.0934  0.0076  0.2908
  660SOL    HW1 2036   4.685   0.137   3.907  0.2729 -2.2643 -0.9031
  660SOL    HW2 2037   4.658   0.257   3.819  1.7256  2.2564  4.2276
  661SOL     OW 2038   1.113   1.700   4.312 -0.6494 -0.6194  0.0899
  661SOL    HW1 2039   1.052   1.668   4.378 -1.5330  0.2048 -0.3163
  661SOL    HW2 2040   1.190   1.728   4.362 -1.2696 -0.1020  0.7649
  662SOL     OW 2041   4.801   4.182   0.838 -0.0972 -0.1314  0.0118
  662SOL    HW1 2042   4.727   4.197   0.896  0.0257  2.1291 -0.3133
  662SOL    HW2 2043   4.878   4.209   0.889  0.3932 -1.3831 -0.0374
  663SOL     OW 2044   1.557   1.780   3.798  0.4619  0.4953  0.2168
  663SOL    HW1 2045   1.505   1.730   3.861  2.0174  0.9546  1.9582
  663SOL    HW2 2046   1.647   1.751   3.813  0.9072  0.7890 -1.6785
  664SOL     OW 2047   0.546   1.664   0.490  0.4176  0.1259 -0.4937
  664SOL    HW1 2048   0.464   1.626   0.521  0.2860  1.5818  1.0868
  664SOL    HW2 2049   0.518   1.743   0.442  0.8544  0.0903 -0.8131
  665SOL     OW 2050   3.395   3.259   3.256 -0.0137 -0.0562 -0.4165
  665SOL    HW1 2051   3.330   3.197   3.224 -0.6512  1.1774 -1.6595
  665SOL    HW2 2052   3.381   3.264   3.350  0.0771 -1.7913 -0.2926
  666SOL     OW 2053   3.356   2.749   4.542 -0.2137  1.2068 -0.1998
  666SOL    HW1 2054   3.387   2.669   4.586  2.1288  2.1184 -0.0376
  666SOL    HW2 2055   3.280   2.776   4.593  0.2301  0.2342  1.0536
  667SOL     OW 2056   0.840   2.407   4.936 -0.0969  0.4759  0.2327
  667SOL    HW1 2057   0.916   2.383   4.989  0.1686  0.2221 -0.2493
  667SOL    HW2 2058   0.866   2.383   4.847 -0.5305  0.9044 -0.0075
  668SOL     OW 2059   2.567   4.050   1.734 -0.1462 -0.0528  0.1476
  668SOL    HW1 2060   2.629   4.054   1.807 -0.5618  1.1387  0.4624
  668SOL    HW2 2061   2.585   3.966   1.692 -1.1422 -1.6582  2.7118
  669SOL     OW 2062   4.230   2.673   4.862  0.3229  0.2885  0.1344
  669SOL    HW1 2063   4.241   2.704   4.772 -1.6862 -1.1572 -0.6765
  669SOL    HW2 2064   4.167   2.733   4.900  0.3975  0.2985  0.2412
  670SOL     OW 2065   0.309   2.797   1.116 -0.2946  0.0993 -0.4602
  670SOL    HW1 2066   0.372   2.724   1.116  0.4340  0.7105 -0.0799
  670SOL    HW2 2067   0.354   2.866   1.067 -0.2087  0.9212  0.7506
  671SOL     OW 2068   3.485   1.243   2.468  0.4635  0.3865 -0.3247
  671SOL    HW1 2069   3.530   1.190   2.403  0.7596  0.1241  0.0941
  671SOL    HW2 2070   3.412   1.189   2.497 -0.4202  0.9921 -1.3431
  672SOL     OW 2071   1.861   1.948   0.835  0.3140  0.3186 -0.3869
  672SOL    HW1 2072   1.910   1.873   0.802  0.9851  0.6912 -0.2531
  672SOL    HW2 2073   1.784   1.910   0.878  0.3231 -0.2542 -0.8688
  673SOL     OW 2074   2.628   3.027   4.521 -0.0161  0.6861  0.4020
  673SOL    HW1 2075   2.533   3.039   4.513 -0.1168 -0.0984  0.3437
  673SOL    HW2 2076   2.661   3.040   4.432 -0.3216 -1.0821 -0.0006
  674SOL     OW 2077   4.351   0.770   3.855  0.3444 -0.2328  0.2891
  674SOL    HW1 2078   4.419   0.750   3.791  3.5518  2.0440  2.6022
  674SOL    HW2 2079   4.318   0.856   3.829  0.2810 -0.1525  0.6253
  675SOL     OW 2080   4.683   1.801   4.406 -0.4871 -0.2266  0.1708
  675SOL    HW1 2081   4.602   1.849   4.424 -1.6833 -0.0488 -4.3886
  675SOL    HW2 2082   4.745   1.867   4.376 -0.4149 -0.8524 -1.1739
  676SOL     OW 2083   0.787   2.699   0.530  0.1310 -0.5588 -0.6015
  676SOL    HW1 2084   0.862   2.727   0.584  1.1008 -1.7036 -1.2955
  676SOL    HW2 2085   0.774   2.607   0.554 -0.5741 -0.5823 -1.0461
  677SOL     OW 2086   2.336   1.423   2.883  0.1329  0.7586 -0.5196
  677SOL    HW1 2087   2.431   1.422   2.895  0.0562  0.6104  0.1750
  677SOL    HW2 2088   2.312   1.515   2.882  0.5485  0.9069 -3.2411
  678SOL     OW 2089   1.693   2.616   3.124  0.6394  0.2102 -0.3882
  678SOL    HW1 2090   1.730   2.703   3.140 -1.1879  0.5063  3.2003
  678SOL    HW2 2091   1.719   2.564   3.200  0.1165 -1.8894 -1.5561
  679SOL     OW 2092   2.661   3.945   0.487 -0.0860 -0.2624  0.0872
  679SOL    HW1 2093   2.697   4.020   0.441  1.6604 -0.6583  0.7585
  679SOL    HW2 2094   2.662   3.970   0.579 -1.4702 -0.3320  0.1432
  680SOL     OW 2095   2.938   4.427   0.573 -0.0516  0.1666 -0.3347
  680SOL    HW1 2096   2.858   4.429   0.520  0.5656  2.0279 -1.2897
  680SOL    HW2 2097   3.009   4.427   0.509  0.7038  0.5849  0.4865
  681SOL     OW 2098   0.156   2.028   2.457 -0.5194  0.3388 -0.9935
  681SOL    HW1 2099   0.132   1.953   2.512 -1.1706  1.6544  0.6187
  681SOL    HW2 2100   0.161   1.992   2.368  0.8943 -1.9415 -0.0724
  682SOL     OW 2101   4.184   2.415   0.304  0.3851  0.2347  0.6768
  682SOL    HW1 2102   4.103   2.397   0.351  0.4850 -1.2044  0.3554
  682SOL    HW2 2103   4.228   2.330   0.299 -0.0157  0.0824 -2.7144
  683SOL     OW 2104   2.162   0.977   0.258 -0.2621 -0.2621  0.2690
  683SOL    HW1 2105   2.173   1.071   0.249 -0.2819 -0.1449  1.2743
  683SOL    HW2 2106   2.142   0.965   0.351 -1.2669 -1.1581 -0.0447
  684SOL     OW 2107   3.594   4.805   1.745  0.6531  0.6514 -0.2458
  684SOL    HW1 2108   3.535   4.801   1.820 -0.1695 -2.7869 -0.8952
  684SOL    HW2 2109   3.682   4.805   1.783  0.2739  1.2957  0.6820
  685SOL     OW 2110   4.327   2.583   4.385 -0.2904 -0.3350  0.6051
  685SOL    HW1 2111   4.407   2.532   4.370 -0.6253 -0.9320  0.8288
  685SOL    HW2 2112   4.348   2.639   4.459  0.1921  0.1009  0.1497
  686SOL     OW 2113   3.284   3.395   0.614 -0.3212 -0.3229 -0.2755
  686SOL    HW1 2114   3.241   3.377   0.530 -0.9569  0.1556 -0.0519
  686SOL    HW2 2115   3.332   3.476   0.599 -0.5609 -0.1541 -0.1305
  687SOL     OW 2116   3.900   1.675   3.440  0.2045  0.4490 -0.0453
  687SOL    HW1 2117   3.983   1.688   3.393  1.1102 -0.5125  1.2264
  687SOL    HW2 2118   3.911   1.591   3.485 -2.7708 -1.5474 -2.5813
  688SOL     OW 2119   4.837   0.831   0.556  0.1753 -0.3317  0.3525
  688SOL    HW1 2120   4.873   0.744   0.576 -1.4724 -0.8505  1.2212
  688SOL    HW2 2121   4.840   0.878   0.639  2.4484  1.0396 -0.4139
  689SOL     OW 2122   1.163   1.748   3.598 -0.3494 -0.4076  0.0572
  689SOL    HW1 2123   1.135   1.667   3.555 -0.9417 -0.1037 -0.1333
  689SOL    HW2 2124   1.241   1.775   3.550 -0.9448 -0.1245 -0.7757
  690SOL     OW 2125   2.768   1.201   2.655  0.2402  0.1629  0.3050
  690SOL    HW1 2126   2.700   1.249   2.607  0.4741 -1.2103 -1.5101
  690SOL    HW2 2127   2.818   1.269   2.699  0.2234  1.5801 -1.7002
  691SOL     OW 2128   1.268   3.019   2.399 -0.0707  0.2635  0.1723
  691SOL    HW1 2129   1.332   3.085   2.372 -1.2228  1.2934 -0.1096
  691SOL    HW2 2130   1.265   2.958   2.325  1.6508 -0.6591  0.7948
  692SOL     OW 2131   0.989   2.283   3.671  0.1237  0.2049 -0.6103
  692SOL    HW1 2132   1.016   2.193   3.651 -1.2527 -0.0521 -1.4899
  692SOL    HW2 2133   1.029   2.336   3.602  0.5995  0.2148 -0.3292
  693SOL     OW 2134   1.960   3.250   2.775 -0.0083 -0.1413 -0.0867
  693SOL    HW1 2135   1.992   3.183   2.835 -0.2043 -0.6733 -0.5659
  693SOL    HW2 2136   1.909   3.202   2.710 -1.8558  0.6685  0.6791
  694SOL     OW 2137   2.693   0.749   1.876 -0.9194  0.3281  0.0267
  694SOL    HW1 2138   2.650   0.700   1.946  1.9811  1.5133  2.9307
  694SOL    HW2 2139   2.687   0.692   1.799 -2.6435 -1.9346  1.6979
  695SOL     OW 2140   4.497   2.230   1.864 -0.1457 -0.0438  0.0980
  695SOL    HW1 2141   4.474   2.162   1.801 -0.3080 -0.5715  0.7119
  695SOL    HW2 2142   4.520   2.182   1.944 -0.5472  0.6294  0.6307
  696SOL     OW 2143   4.789   0.777   4.494  0.0877  0.1476 -0.2505
  696SOL    HW1 2144   4.712   0.720   4.491 -1.1062  1.7199 -2.0160
  696SOL    HW2 2145   4.860   0.723   4.462 -0.6224 -0.8584 -0.1873
  697SOL     OW 2146   3.826   0.500   1.806  0.6085  0.5914  0.0171
  697SOL    HW1 2147   3.757   0.542   1.755  0.3698  1.5326  1.0820
  697SOL    HW2 2148   3.827   0.547   1.889 -0.2839 -2.0621  1.6709
  698SOL     OW 2149   1.682   0.752   0.371  0.4351  0.5257  0.5768
  698SOL    HW1 2150   1.702   0.779   0.282 -0.8363 -1.2739 -0.3024
  698SOL    HW2 2151   1.594   0.786   0.388  0.6643  0.8531  1.1583
  699SOL     OW 2152   4.962   4.961   0.367  0.0983 -0.5651  0.3890
  699SOL    HW1 2153   5.026   4.917   0.312 -0.7808 -0.5089 -0.7041
  699SOL    HW2 2154   4.889   4.900   0.373 -0.7803  0.3717 -0.4507
  700SOL     OW 2155   0.958   3.196   1.045 -0.0605  0.5846  0.5761
  700SOL    HW1 2156   0.900   3.179   1.119 -1.1765  0.0808 -0.3921
  700SOL    HW2 2157   0.902   3.235   0.978  0.0050 -2.4077 -1.4066
  701SOL     OW 2158   0.231   3.154   1.244 -0.4082  0.2527  0.5726
  701SOL    HW1 2159   0.324   3.167   1.229 -0.7249  1.3423 -0.5795
  701SOL    HW2 2160   0.197   3.120   1.161 -1.5746  3.0035 -0.2025
  702SOL     OW 2161   4.913   0.961   4.665 -0.7069 -0.1993 -0.0006
  702SOL    HW1 2162   4.926   0.915   4.748  1.0498  1.2714  0.6213
  702SOL    HW2 2163   4.871   0.897   4.608 -0.8862 -1.6324  1.6558
  703SOL     OW 2164   1.002   1.883   1.568 -0.4223  0.9254 -0.1252
  703SOL    HW1 2165   0.940   1.809   1.564  3.0731 -2.3414  0.6034
  703SOL    HW2 2166   1.020   1.894   1.661  0.8202  1.1050 -0.3752
  704SOL     OW 2167   0.882   4.340   4.686  0.0553  0.0765  0.0920
  704SOL    HW1 2168   0.800   4.335   4.735 -0.9479  1.2759 -1.3591
  704SOL    HW2 2169   0.939   4.395   4.740 -0.6733  0.5668  0.3788
  705SOL     OW 2170   0.888   0.589   3.738 -0.1644  0.1337 -0.3408
  705SOL    HW1 2171   0.821   0.605   3.672 -0.0594 -3.5525 -1.5728
  705SOL    HW2 2172   0.840   0.583   3.821 -0.9842  0.0882 -0.8120
  706SOL     OW 2173   0.341   4.924   0.439 -0.0551 -0.5210  0.4796
  706SOL    HW1 2174   0.421   4.963   0.473  0.4941 -1.0128 -0.2135
  706SOL    HW2 2175   0.270   4.975   0.477  0.5755 -0.4144  1.5220
  707SOL     OW 2176   2.874   1.781   2.501 -0.0169  0.0808 -0.6146
  707SOL    HW1 2177   2.908   1.866   2.474 -0.5939  0.8218  0.8781
  707SOL    HW2 2178   2.899   1.773   2.593 -0.9533 -0.8574 -0.4199
  708SOL     OW 2179   4.750   3.715   1.993  0.2813  0.0412 -0.1193
  708SOL    HW1 2180   4.698   3.726   2.072 -1.3864  0.3156 -1.1960
  708SOL    HW2 2181   4.688   3.685   1.927  1.5042  0.3511 -1.4766
  709SOL     OW 2182   0.539   2.628   4.443  0.0408 -0.6686 -0.0660
  709SOL    HW1 2183   0.613   2.684   4.417  0.2584 -0.9997 -0.1774
  709SOL    HW2 2184   0.463   2.685   4.438  0.3141 -0.2746  0.2182
  710SOL     OW 2185   1.795   3.450   0.475 -0.5286  0.2202  0.0747
  710SOL    HW1 2186   1.854   3.509   0.430  1.3590 -1.3755  0.3358
  710SOL    HW2 2187   1.843   3.423   0.553 -1.9956 -0.4131  0.7962
  711SOL     OW 2188   0.116   2.980   4.462 -0.1924  1.0683 -0.0857
  711SOL    HW1 2189   0.171   3.011   4.535  0.6494 -1.5140  0.4953
  711SOL    HW2 2190   0.047   2.929   4.504  0.4300 -0.6510 -1.0712
  712SOL     OW 2191   2.666   2.416   4.075 -0.1998 -0.3585  0.0400
  712SOL    HW1 2192   2.601   2.345   4.071 -2.4570  1.4372  1.9200
  712SOL    HW2 2193   2.661   2.457   3.989 -2.7080  0.5879  0.5412
  713SOL     OW 2194   3.701   2.699   1.278 -0.2201  0.0896 -0.2899
  713SOL    HW1 2195   3.772   2.658   1.327  1.5505  0.8403 -2.0745
  713SOL    HW2 2196   3.638   2.725   1.345  1.5310  0.0671  1.4712
  714SOL     OW 2197   0.145   0.890   2.512 -0.2562  0.1906 -0.0207
  714SOL    HW1 2198   0.060   0.925   2.486 -0.0120  2.2242  1.6811
  714SOL    HW2 2199   0.156   0.917   2.603  1.7737 -0.8869  0.1106
  715SOL     OW 2200   4.219   0.280   1.743  0.2887 -0.0970  0.1711
  715SOL    HW1 2201   4.249   0.341   1.811 -0.4747  1.9593 -1.2490
  715SOL    HW2 2202   4.179   0.336   1.676 -0.6699 -2.1998 -1.1157
  716SOL     OW 2203   1.105   1.491   0.220 -0.1702 -0.3453 -0.4378
  716SOL    HW1 2204   1.084   1.541   0.298  1.2247 -0.8219  0.2775
  716SOL    HW2 2205   1.026   1.441   0.200 -1.3676  1.6186 -0.7988
  717SOL     OW 2206   3.212   3.058   0.169 -0.1218 -0.2675 -0.1880
  717SOL    HW1 2207   3.256   3.142   0.157  0.8757 -0.9253 -1.2795
  717SOL    HW2 2208   3.204   3.048   0.264 -0.5331  1.1830 -0.0517
  718SOL     OW 2209   4.436   3.235   1.526  0.5035  0.6293  0.2844
  718SOL    HW1 2210   4.375   3.173   1.566 -0.2016  1.6690  0.8921
  718SOL    HW2 2211   4.512   3.183   1.502 -0.6452 -0.7270 -0.5521
  719SOL     OW 2212   4.350   0.719   1.256 -0.5264  0.2839  0.3268
  719SOL    HW1 2213   4.397   0.687   1.179  1.0682 -1.5124  1.9343
  719SOL    HW2 2214   4.413   0.711   1.327 -2.2833  0.8547  2.0328
  720SOL     OW 2215   2.824   2.575   0.352 -0.3160 -0.5327  0.0563
  720SOL    HW1 2216   2.775   2.648   0.390 -1.2159 -0.0386 -1.9197
  720SOL    HW2 2217   2.908   2.576   0.397  0.2997  2.7083 -0.9119
  721SOL     OW 2218   1.319   3.912   1.150 -0.3447  0.2041 -0.1489
  721SOL    HW1 2219   1.260   3.897   1.075 -0.7547  0.3910  0.1317
  721SOL    HW2 2220   1.278   3.864   1.222 -1.0538  1.6957  0.4671
  722SOL     OW 2221   0.789   3.950   4.487 -0.4704  0.1317 -0.4490
  722SOL    HW1 2222   0.836   3.919   4.565  0.5304 -0.8817 -1.4049
  722SOL    HW2 2223   0.712   3.996   4.521 -0.5656 -1.1082  1.1056
  723SOL     OW 2224   1.106   2.254   2.670  0.3737 -0.1480 -0.7453
  723SOL    HW1 2225   1.076   2.171   2.708  0.3166  0.4170  0.5003
  723SOL    HW2 2226   1.136   2.231   2.582 -0.9641 -1.2319 -0.9412
  724SOL     OW 2227   1.876   2.788   1.363 -0.2846  0.0547  0.4630
  724SOL    HW1 2228   1.960   2.742   1.358  0.0671  0.7964 -2.3846
  724SOL    HW2 2229   1.893   2.864   1.418  1.5988  1.3503 -1.7568
  725SOL     OW 2230   2.502   3.561   2.671  0.2692 -0.1613  0.2592
  725SOL    HW1 2231   2.427   3.571   2.612  0.7245  0.3743 -0.2393
  725SOL    HW2 2232   2.555   3.638   2.655  0.2176  0.1893  1.6654
  726SOL     OW 2233   3.285   4.000   0.527 -0.0796  0.0579  0.3322
  726SOL    HW1 2234   3.315   4.072   0.470 -0.6247 -0.2293 -0.3228
  726SOL    HW2 2235   3.190   4.002   0.520 -0.0736 -1.3069 -0.4167
  727SOL     OW 2236   4.407   4.312   2.953  0.6550  0.3528  0.0849
  727SOL    HW1 2237   4.482   4.268   2.913  0.3664 -0.4082  0.3841
  727SOL    HW2 2238   4.446   4.376   3.013  1.0670  0.2758 -0.0965
  728SOL     OW 2239   3.800   4.451   3.751 -0.3535  0.0437 -0.4508
  728SOL    HW1 2240   3.739   4.508   3.798 -0.3715 -0.3790  0.0474
  728SOL    HW2 2241   3.886   4.472   3.789 -0.4413 -0.7116  0.2031
  729SOL     OW 2242   2.404   1.630   0.295  0.2226  0.3580 -0.2719
  729SOL    HW1 2243   2.380   1.701   0.235  0.1387  0.3978 -0.1919
  729SOL    HW2 2244   2.358   1.651   0.376 -0.3902 -0.1691 -0.4714
  730SOL     OW 2245   0.096   1.496   2.847  0.0061  0.2071 -0.3610
  730SOL    HW1 2246   0.123   1.423   2.904  1.2555 -0.5829 -1.8815
  730SOL    HW2 2247   0.007   1.517   2.875 -0.6710 -2.3877 -0.3078
  731SOL     OW 2248   2.208   3.329   0.559  0.2071  0.3543 -0.2720
  731SOL    HW1 2249   2.181   3.275   0.484 -1.3218  0.8396 -0.0820
  731SOL    HW2 2250   2.282   3.380   0.525 -0.7169  0.8789 -1.5997
  732SOL     OW 2251   4.039   2.023   2.462  0.1593 -0.2898 -0.2543
  732SOL    HW1 2252   4.019   2.010   2.555  0.8677 -0.3578 -0.1046
  732SOL    HW2 2253   4.026   2.116   2.448  0.6844 -0.1651  0.0735
  733SOL     OW 2254   4.736   2.649   1.013 -0.8249 -0.4495 -0.1365
  733SOL    HW1 2255   4.765   2.571   1.060 -0.1573 -0.9890 -1.3966
  733SOL    HW2 2256   4.644   2.658   1.037 -0.0381  0.6100  3.0178
  734SOL     OW 2257   0.151   0.046   3.157 -0.4260  0.2916 -0.3771
  734SOL    HW1 2258   0.230   0.081   3.117  0.0569 -3.0002 -2.6943
  734SOL    HW2 2259   0.079   0.092   3.114  0.1880 -0.3588 -2.1635
  735SOL     OW 2260   0.964   4.942   2.980 -0.6744 -0.3214 -0.6550
  735SOL    HW1 2261   0.932   4.861   2.940 -0.7968  0.5156 -2.3272
  735SOL    HW2 2262   1.057   4.946   2.955 -0.5889 -0.1000 -0.3080
  736SOL     OW 2263   2.012   2.415   1.361 -0.4358  0.4024  0.1827
  736SOL    HW1 2264   1.974   2.429   1.447  0.2939  1.3598  0.3653
  736SOL    HW2 2265   2.073   2.488   1.349 -0.7473  0.4556 -1.2733
  737SOL     OW 2266   0.921   2.931   3.783  0.2434  0.4440  0.4288
  737SOL    HW1 2267   0.874   2.857   3.821  2.1078 -0.7817  0.5189
  737SOL    HW2 2268   0.858   2.972   3.724 -0.4446 -2.1196 -0.7686
  738SOL     OW 2269   1.563   0.558   3.084  0.1641 -0.0523  0.2333
  738SOL    HW1 2270   1.518   0.631   3.128 -0.3641 -1.0069  1.3088
  738SOL    HW2 2271   1.575   0.493   3.152 -1.3270 -1.8904 -1.1577
  739SOL     OW 2272   3.194   3.357   1.502  0.6815  0.4122  0.2952
  739SOL    HW1 2273   3.166   3.403   1.581 -1.6002 -0.4105  0.0299
  739SOL    HW2 2274   3.226   3.273   1.533 -0.9871 -0.2453  0.3446
  740SOL     OW 2275   4.508   0.354   2.203 -0.4063 -0.3319  0.0929
  740SOL    HW1 2276   4.544   0.349   2.292 -0.4448 -1.2546  0.0700
  740SOL    HW2 2277   4.564   0.417   2.158 -0.3480  0.0974  0.7511
  741SOL     OW 2278   0.800   2.983   4.306  0.2057  0.5650  0.5222
  741SOL    HW1 2279   0.772   3.027   4.386  1.6208  0.5766  1.0236
  741SOL    HW2 2280   0.893   2.966   4.318  0.6357  1.2220 -1.4134
  742SOL     OW 2281   2.131   3.960   4.578 -0.2640 -0.1105  0.2852
  742SOL    HW1 2282   2.059   3.973   4.515 -1.1787 -1.0943  1.0875
  742SOL    HW2 2283   2.206   3.936   4.524 -1.0282 -0.9058 -0.4595
  743SOL     OW 2284   4.420   1.655   2.470 -0.0344 -0.1953 -0.1843
  743SOL    HW1 2285   4.477   1.713   2.420  0.0609  0.4433  0.6523
  743SOL    HW2 2286   4.332   1.689   2.454 -0.1143 -0.6332 -0.7440
  744SOL     OW 2287   4.771   3.974   3.324 -0.3426 -0.4897  0.8664
  744SOL    HW1 2288   4.729   4.055   3.297  0.8983  0.0279  0.4109
  744SOL    HW2 2289   4.750   3.911   3.255  2.1927  0.6234 -1.0897
  745SOL     OW 2290   2.423   3.456   0.452  0.1749  0.7177  0.2424
  745SOL    HW1 2291   2.473   3.533   0.481  1.0608  0.6902 -1.0997
  745SOL    HW2 2292   2.476   3.381   0.477 -0.1935  0.5813  0.6309
  746SOL     OW 2293   3.374   2.525   4.755  0.1715 -0.4586 -0.7875
  746SOL    HW1 2294   3.309   2.497   4.819  1.3342 -1.0680  0.1779
  746SOL    HW2 2295   3.454   2.539   4.807  0.0772  3.4008 -1.3755
  747SOL     OW 2296   0.947   0.284   1.381  0.1191 -0.6921 -0.3978
  747SOL    HW1 2297   0.888   0.344   1.426  0.4104 -0.5412 -0.2180
  747SOL    HW2 2298   1.034   0.322   1.392  0.4266 -1.6276  0.5036
  748SOL     OW 2299   0.712   4.796   1.978 -0.5940  0.4340  0.2082
  748SOL    HW1 2300   0.691   4.738   2.051 -0.8772  0.1290 -0.1121
  748SOL    HW2 2301   0.666   4.758   1.903  0.6998  0.0165 -0.4107
  749SOL     OW 2302   0.022   4.278   2.391  0.5352 -0.3672  0.1038
  749SOL    HW1 2303  -0.010   4.189   2.405 -0.2123 -0.3722 -1.4307
  749SOL    HW2 2304   0.070   4.299   2.471  0.6767 -2.1209  0.5185
  750SOL     OW 2305   3.560   3.364   0.044 -0.7525  0.1342 -0.0940
  750SOL    HW1 2306   3.624   3.364  -0.027 -0.8521 -2.5940 -0.3199
  750SOL    HW2 2307   3.598   3.420   0.111  1.6789 -0.9981 -0.4302
  751SOL     OW 2308   0.886   0.562   4.341  0.3008 -0.3200 -0.1910
  751SOL    HW1 2309   0.865   0.655   4.354  2.9565  0.1200  1.8348
  751SOL    HW2 2310   0.967   0.562   4.291  0.3064 -1.5518 -0.2082
  752SOL     OW 2311   3.782   0.877   2.504  0.3290 -0.5039  0.2667
  752SOL    HW1 2312   3.743   0.838   2.582  0.1074 -1.1253 -0.1481
  752SOL    HW2 2313   3.744   0.828   2.431  2.2634 -1.4892 -0.1444
  753SOL     OW 2314   0.539   0.873   4.741 -0.1836 -0.3545  0.5695
  753SOL    HW1 2315   0.543   0.882   4.646  0.5103  1.9411  0.7465
  753SOL    HW2 2316   0.538   0.964   4.773 -3.6549 -0.9615  2.6457
  754SOL     OW 2317   4.895   0.875   0.892  0.3352 -0.0433 -0.1946
  754SOL    HW1 2318   4.860   0.859   0.979  1.8374 -0.7384  0.3036
  754SOL    HW2 2319   4.852   0.956   0.864 -0.6196 -0.1329  0.9215
  755SOL     OW 2320   4.270   3.040   1.620  0.5751  0.1996  0.0793
  755SOL    HW1 2321   4.189   2.990   1.618  0.3614  0.4878  0.8766
  755SOL    HW2 2322   4.298   3.037   1.712  1.5005  0.0547 -0.1887
  756SOL     OW 2323   3.770   1.658   0.857 -0.5378  0.1417  0.2685
  756SOL    HW1 2324   3.815   1.740   0.836 -1.2203  0.2071 -1.0205
  756SOL    HW2 2325   3.678   1.681   0.859 -0.6631 -0.3921  0.9413
  757SOL     OW 2326   3.245   4.723   3.048  0.1000  0.4111 -0.3389
  757SOL    HW1 2327   3.245   4.644   2.994  1.0646 -0.2409  0.5712
  757SOL    HW2 2328   3.183   4.704   3.118 -0.1970  0.7467 -0.5103
  758SOL     OW 2329   0.176   0.980   4.338  0.2991  0.5916  0.2132
  758SOL    HW1 2330   0.209   1.003   4.425  0.1954  2.8531 -0.2859
  758SOL    HW2 2331   0.237   1.021   4.278  0.8173 -1.6083 -0.8384
  759SOL     OW 2332   0.371   4.883   4.867 -0.0062  0.0464  0.1052
  759SOL    HW1 2333   0.319   4.955   4.904  0.2031  1.4437 -2.1454
  759SOL    HW2 2334   0.394   4.913   4.779  1.6660 -2.0309 -0.2340
  760SOL     OW 2335   1.722   1.121   0.164  0.1614 -0.0819 -0.0483
  760SOL    HW1 2336   1.671   1.150   0.089  1.1042  0.8466 -0.3556
  760SOL    HW2 2337   1.678   1.160   0.240 -1.4173 -1.8852  0.0356
  761SOL     OW 2338   2.082   4.100   1.889 -0.5260 -0.0494  0.1652
  761SOL    HW1 2339   2.025   4.174   1.868 -0.0464  0.2661 -0.0329
  761SOL    HW2 2340   2.168   4.125   1.855 -0.6457 -1.2424 -1.1027
  762SOL     OW 2341   2.605   3.336   0.269 -0.5717  0.9276  0.4637
  762SOL    HW1 2342   2.656   3.416   0.278  0.9738 -0.1626  2.1450
  762SOL    HW2 2343   2.662   3.277   0.220 -0.8942  0.2466  0.8902
  763SOL     OW 2344   4.340   4.266   3.272 -0.0324 -0.0149  0.1344
  763SOL    HW1 2345   4.313   4.300   3.358  0.0729 -0.0491  0.1803
  763SOL    HW2 2346   4.310   4.333   3.210  2.3233  1.4093  0.3944
  764SOL     OW 2347   2.132   3.641   0.803 -0.1657  0.1861 -0.1077
  764SOL    HW1 2348   2.223   3.615   0.790 -0.3395 -0.0369 -0.9385
  764SOL    HW2 2349   2.136   3.736   0.819  0.1771  0.2568 -0.5927
  765SOL     OW 2350   4.213   4.909   0.087 -0.3131 -0.1011 -0.5189
  765SOL    HW1 2351   4.226   4.856   0.008  0.6855  0.4189 -0.7192
  765SOL    HW2 2352   4.250   4.994   0.065 -0.6892  0.2723  0.2595
  766SOL     OW 2353   0.778   2.656   2.570 -0.1132 -0.4981 -0.4211
  766SOL    HW1 2354   0.871   2.634   2.565 -0.1649 -2.8953  3.9989
  766SOL    HW2 2355   0.733   2.574   2.551 -1.3919  0.5427 -2.1055
  767SOL     OW 2356   0.538   3.891   2.294 -0.5887  0.0300  0.4427
  767SOL    HW1 2357   0.517   3.799   2.279  1.7398 -0.9195  2.3581
  767SOL    HW2 2358   0.475   3.920   2.359 -1.4808 -0.1014 -0.3366
  768SOL     OW 2359   4.667   0.100   1.586 -0.2684  0.1106 -0.3605
  768SOL    HW1 2360   4.682   0.030   1.523 -2.0705  0.2322 -0.9807
  768SOL    HW2 2361   4.697   0.179   1.541  0.8899 -0.1161 -0.0212
  769SOL     OW 2362   2.452   4.497   3.010 -0.9548  0.0957 -0.3090
  769SOL    HW1 2363   2.484   4.521   3.097  1.0187  0.2464 -1.0192
  769SOL    HW2 2364   2.496   4.414   2.991  0.6815  1.2961 -2.1437
  770SOL     OW 2365   4.053   2.438   1.232  0.1369 -0.5309 -0.4244
  770SOL    HW1 2366   4.079   2.529   1.219  0.1312 -0.5307 -0.4361
  770SOL    HW2 2367   4.092   2.414   1.316 -0.9521 -0.1068  0.2352
  771SOL     OW 2368   1.822   4.651   2.368  0.5737  0.6997 -0.5247
  771SOL    HW1 2369   1.756   4.595   2.328  1.9049 -0.2418 -1.5004
  771SOL    HW2 2370   1.828   4.621   2.459  0.9032 -0.4225 -0.9055
  772SOL     OW 2371   3.776   1.117   3.251  0.5622  0.1814  0.6455
  772SOL    HW1 2372   3.686   1.086   3.243  0.8425 -0.2636 -1.2502
  772SOL    HW2 2373   3.768   1.205   3.290 -0.8696  0.8906 -1.1243
  773SOL     OW 2374   4.175   4.395   3.447  0.3673 -0.3548 -0.3135
  773SOL    HW1 2375   4.140   4.329   3.507  0.0108 -0.7162 -0.9139
  773SOL    HW2 2376   4.098   4.435   3.407  0.5944  0.1322 -0.2732
  774SOL     OW 2377  -0.006   2.803   1.879 -0.6267 -0.3467 -0.0535
  774SOL    HW1 2378   0.076   2.848   1.899  2.0712 -4.1911 -1.4341
  774SOL    HW2 2379  -0.045   2.854   1.808 -0.1794  2.2342  1.4372
  775SOL     OW 2380   1.624   4.421   2.947 -0.4926  0.1455 -0.0199
  775SOL    HW1 2381   1.540   4.465   2.962 -1.0178 -1.1315  0.9941
  775SOL    HW2 2382   1.600   4.332   2.920  0.5362  0.4222 -2.0560
  776SOL     OW 2383   1.238   0.702   2.880 -0.0073 -0.3489 -0.4563
  776SOL    HW1 2384   1.222   0.649   2.958  1.5915  2.2746  1.8369
  776SOL    HW2 2385   1.313   0.661   2.838  0.0127 -0.9801  0.1787
  777SOL     OW 2386   1.192   4.678   1.626  0.0916 -0.0781  0.0928
  777SOL    HW1 2387   1.163   4.676   1.717 -0.5814 -2.3994 -0.1032
  777SOL    HW2 2388   1.238   4.595   1.613  1.8522  1.0075 -1.2151
  778SOL     OW 2389   2.139   2.710   1.334 -0.2835  0.1045  0.0400
  778SOL    HW1 2390   2.204   2.641   1.320  0.5366  1.0302 -0.9420
  778SOL    HW2 2391   2.147   2.766   1.256 -0.6242  1.5269  0.9878
  779SOL     OW 2392   2.362   2.211   1.759  0.5141 -0.1164 -0.2972
  779SOL    HW1 2393   2.268   2.229   1.763  0.7929  1.2525  2.6400
  779SOL    HW2 2394   2.372   2.122   1.791  0.3370  0.6260  1.9765
  780SOL     OW 2395   1.968   0.246   4.072 -0.3070  0.2015 -0.5723
  780SOL    HW1 2396   2.039   0.231   4.134 -2.1434  0.7030  1.8430
  780SOL    HW2 2397   1.941   0.159   4.045 -0.6870 -0.1703  0.9002
  781SOL     OW 2398   0.932   4.072   0.512 -1.2380  0.4241  0.0615
  781SOL    HW1 2399   1.011   4.119   0.540 -1.6429  0.3109  1.4819
  781SOL    HW2 2400   0.888   4.132   0.453 -0.8498  1.1090  0.4575
  782SOL     OW 2401   4.915   3.145   2.696  0.2729  0.2722  1.0587
  782SOL    HW1 2402   4.876   3.208   2.757 -0.1276  0.8380  0.2404
  782SOL    HW2 2403   4.850   3.075   2.689 -1.1294  1.6363 -0.9980
  783SOL     OW 2404   2.844   4.816   4.723  0.4737  0.2205  0.4324
  783SOL    HW1 2405   2.804   4.749   4.777 -0.7637 -0.0790 -0.7872
  783SOL    HW2 2406   2.786   4.891   4.730  0.8397  0.5183  0.3149
  784SOL     OW 2407   3.976   4.451   4.296 -0.4821 -0.0930 -0.0560
  784SOL    HW1 2408   3.948   4.365   4.327 -1.5633  0.2024 -0.1760
  784SOL    HW2 2409   4.071   4.448   4.299 -0.5296 -0.9649  0.8440
  785SOL     OW 2410   1.229   1.239   4.109 -0.2479 -0.5208 -0.2570
  785SOL    HW1 2411   1.145   1.270   4.142  0.1220 -0.4354  0.6288
  785SOL    HW2 2412   1.285   1.233   4.187  0.5885 -0.5048 -0.8415
  786SOL     OW 2413   2.220   2.892   4.883 -0.3418 -0.4014  0.8702
  786SOL    HW1 2414   2.175   2.899   4.798 -1.3687 -0.9819  1.3477
  786SOL    HW2 2415   2.288   2.958   4.879 -1.5036  0.8094  0.2664
  787SOL     OW 2416   3.056   2.659   2.389 -0.6023 -0.4012  0.3147
  787SOL    HW1 2417   2.980   2.687   2.339 -0.8935  0.2297  1.0833
  787SOL    HW2 2418   3.107   2.606   2.328 -2.6300 -2.5527  0.3666
  788SOL     OW 2419   1.897   4.124   1.641  0.2457 -0.6906 -0.2086
  788SOL    HW1 2420   1.853   4.204   1.612 -1.2587 -2.2418 -2.5439
  788SOL    HW2 2421   1.872   4.115   1.732 -1.6531  0.2227 -0.5779
  789SOL     OW 2422   3.765   4.512   4.103 -0.6385  0.7240  0.3413
  789SOL    HW1 2423   3.823   4.487   4.175 -0.7745  1.3073  0.6657
  789SOL    HW2 2424   3.807   4.588   4.064 -0.4210  0.2400 -0.3887
  790SOL     OW 2425   3.012   1.010   4.367  0.2180 -0.0865 -0.2705
  790SOL    HW1 2426   3.057   0.948   4.425 -0.0428 -1.6588 -1.6840
  790SOL    HW2 2427   2.939   1.043   4.419  0.5885 -0.6733  0.6467
  791SOL     OW 2428   3.061   3.874   4.765  0.2945  0.1682 -0.1220
  791SOL    HW1 2429   2.989   3.831   4.812  0.0505  0.6343 -0.0605
  791SOL    HW2 2430   3.136   3.864   4.823  0.0472  0.5338  0.2715
  792SOL     OW 2431   4.191   2.717   3.680 -0.0935  0.2810  0.3362
  792SOL    HW1 2432   4.104   2.739   3.715 -0.3635 -0.3425  0.0603
  792SOL    HW2 2433   4.174   2.688   3.591  0.5418  1.3737 -0.1626
  793SOL     OW 2434   3.238   3.452   4.799  0.1597  0.1049 -0.0274
  793SOL    HW1 2435   3.145   3.430   4.808  0.4635 -0.3564  2.6454
  793SOL    HW2 2436   3.239   3.548   4.793 -0.6015  0.0078 -2.9028
  794SOL     OW 2437   2.474   4.781   4.600 -0.1337  0.4238  0.4963
  794SOL    HW1 2438   2.427   4.838   4.538 -1.1858 -1.3263 -0.3975
  794SOL    HW2 2439   2.559   4.767   4.559 -0.8885 -0.8707 -0.7117
  795SOL     OW 2440   1.316   2.726   3.781  0.0134  0.0029  0.1643
  795SOL    HW1 2441   1.294   2.798   3.721  2.4630  1.2178  0.6205
  795SOL    HW2 2442   1.387   2.680   3.737  1.0200  0.1679  1.5748
  796SOL     OW 2443   3.630   0.467   4.543  0.7404 -0.2261 -0.3422
  796SOL    HW1 2444   3.719   0.501   4.528  0.6864 -0.0467 -0.2581
  796SOL    HW2 2445   3.633   0.433   4.633  0.7435 -0.2856 -0.3647
  797SOL     OW 2446   4.275   3.468   0.861 -0.1696  1.0499 -0.5668
  797SOL    HW1 2447   4.302   3.512   0.780 -0.7340 -0.9125 -1.8856
  797SOL    HW2 2448   4.357   3.447   0.905  0.2223  0.5129 -1.5381
  798SOL     OW 2449   4.249   0.598   3.285  0.1831  0.5632  0.4339
  798SOL    HW1 2450   4.250   0.571   3.194  0.7516  1.8480  0.0326
  798SOL    HW2 2451   4.342   0.604   3.310  0.0366  0.2673  1.0777
  799SOL     OW 2452   1.052   2.913   3.143 -0.6216 -0.1439 -0.0431
  799SOL    HW1 2453   1.022   2.887   3.056 -2.3936 -2.2454  1.1065
  799SOL    HW2 2454   1.029   3.006   3.150 -2.8803 -0.6031 -0.8638
  800SOL     OW 2455   0.416   3.433   0.310  0.0082 -0.0697  0.3966
  800SOL    HW1 2456   0.340   3.387   0.348 -0.7025 -0.2014 -1.0850
  800SOL    HW2 2457   0.377   3.493   0.246  1.0466  1.4110  1.1143
  801SOL     OW 2458   4.226   1.856   3.797  0.4151  0.0816  0.4665
  801SOL    HW1 2459   4.304   1.828   3.845 -0.4123 -0.6635  1.4131
  801SOL    HW2 2460   4.175   1.905   3.861 -1.1076 -1.6461  0.6346
  802SOL     OW 2461   2.788   0.328   1.484 -0.3460 -0.0726 -0.3410
  802SOL    HW1 2462   2.882   0.309   1.485 -0.0492  1.2662  0.8278
  802SOL    HW2 2463   2.781   0.414   1.444 -0.7835  0.9511  1.7683
  803SOL     OW 2464   1.491   0.521   1.959 -0.0990  0.5755 -0.0138
  803SOL    HW1 2465   1.490   0.430   1.932  2.7126  0.1543  1.0158
  803SOL    HW2 2466   1.433   0.565   1.897  0.3425 -1.5033 -2.0260
  804SOL     OW 2467   2.884   1.917   0.788 -0.3169  0.3873 -0.9736
  804SOL    HW1 2468   2.843   1.954   0.710 -1.1270  2.0658  0.1926
  804SOL    HW2 2469   2.928   1.990   0.830 -0.7459 -0.2341  0.6651
  805SOL     OW 2470   1.935   3.117   3.730 -0.5533  0.8146 -0.1892
  805SOL    HW1 2471   1.901   3.135   3.818  0.5245  1.1719  0.1742
  805SOL    HW2 2472   1.859   3.091   3.680 -1.1066  0.0202  1.0110
  806SOL     OW 2473   1.958   0.406   0.914 -0.1866 -0.9678 -0.1773
  806SOL    HW1 2474   2.037   0.430   0.866 -0.6573  0.1830 -0.4114
  806SOL    HW2 2475   1.987   0.395   1.005  0.0024  0.9298  0.0240
  807SOL     OW 2476   0.824   0.850   1.028  0.1749 -0.3363  0.4333
  807SOL    HW1 2477   0.912   0.814   1.014 -0.2482 -0.4645 -2.4195
  807SOL    HW2 2478   0.765   0.784   0.992 -1.1271 -0.1779  2.1590
  808SOL     OW 2479   3.582   3.483   1.253  0.7072 -0.1444  0.4315
  808SOL    HW1 2480   3.543   3.479   1.165 -2.0939  0.9969  1.5054
  808SOL    HW2 2481   3.674   3.459   1.239  0.7790  1.4698 -3.0454
  809SOL     OW 2482   2.264   3.020   1.408  0.4253  0.2567  0.0843
  809SOL    HW1 2483   2.336   3.070   1.367  0.0946  0.1560 -0.6394
  809SOL    HW2 2484   2.244   2.951   1.345 -2.1255  1.8756 -1.0576
  810SOL     OW 2485   0.428   1.416   4.611  0.5894 -0.5533  0.1043
  810SOL    HW1 2486   0.370   1.380   4.678 -0.3886 -0.3706 -0.6347
  810SOL    HW2 2487   0.480   1.341   4.581 -0.8238 -1.2012 -0.8006
  811SOL     OW 2488   3.371   4.800   3.531 -0.8032 -0.0709  0.1252
  811SOL    HW1 2489   3.336   4.857   3.600 -0.5634  1.5044 -1.0054
  811SOL    HW2 2490   3.428   4.856   3.480  0.4040 -1.6496 -0.3453
  812SOL     OW 2491   0.195   3.686   2.966 -0.3737  0.1117  0.8672
  812SOL    HW1 2492   0.175   3.653   3.053  2.4854 -0.6895  1.3121
  812SOL    HW2 2493   0.257   3.757   2.980  0.1866 -0.0742 -0.5113
  813SOL     OW 2494   0.897   3.636   2.852 -0.2083 -0.7940 -0.0186
  813SOL    HW1 2495   0.817   3.603   2.812  0.6672  0.1308 -2.7294
  813SOL    HW2 2496   0.892   3.731   2.842  1.1696 -0.7150 -0.1566
  814SOL     OW 2497   3.231   4.683   2.187  0.2757 -0.2659 -0.3134
  814SOL    HW1 2498   3.322   4.676   2.216  0.1579 -0.0954  0.1064
  814SOL    HW2 2499   3.222   4.616   2.120  0.9808  0.3708 -1.0587
  815SOL     OW 2500   0.246   0.308   2.332  0.3168 -0.4384  0.2667
  815SOL    HW1 2501   0.225   0.220   2.300 -1.1796 -0.1871  0.4921
  815SOL    HW2 2502   0.197   0.367   2.275  0.6162  0.2135  0.6732
  816SOL     OW 2503   1.942   2.769   3.704 -0.2595  0.3771 -0.0492
  816SOL    HW1 2504   1.849   2.790   3.711 -0.5155 -0.7978  0.4002
  816SOL    HW2 2505   1.985   2.853   3.696 -1.5517  0.8770 -2.9435
  817SOL     OW 2506   3.921   0.219   4.964 -0.3773  0.3366 -0.2326
  817SOL    HW1 2507   3.990   0.197   4.901  0.7167 -0.4917  1.2205
  817SOL    HW2 2508   3.877   0.296   4.925  1.3058  0.8350 -1.2288
  818SOL     OW 2509   2.367   4.748   3.508 -0.0902  0.0236 -0.7999
  818SOL    HW1 2510   2.406   4.822   3.555 -2.7249  0.0023  1.7221
  818SOL    HW2 2511   2.310   4.790   3.443 -1.5548  0.3079  0.6024
  819SOL     OW 2512   0.143   4.858   0.178  0.3287 -0.5186 -0.3081
  819SOL    HW1 2513   0.167   4.799   0.107  1.1285 -0.5876  0.0099
  819SOL    HW2 2514   0.153   4.946   0.141 -0.8952 -0.5614 -0.7919
  820SOL     OW 2515   1.041   0.216   0.241  0.5134  0.3751 -0.2213
  820SOL    HW1 2516   0.951   0.196   0.215  0.9089  0.1504 -1.5261
  820SOL    HW2 2517   1.058   0.158   0.315 -0.4094  0.4170  0.0409
  821SOL     OW 2518   3.828   0.289   2.632 -0.5695 -0.7565 -0.2192
  821SOL    HW1 2519   3.768   0.214   2.635 -1.7379  0.0901 -1.0199
  821SOL    HW2 2520   3.836   0.309   2.539  0.0097 -0.1166 -0.0401
  822SOL     OW 2521   0.605   4.459   0.986  0.1074  0.1429 -0.1504
  822SOL    HW1 2522   0.635   4.529   0.928 -0.5976 -0.1029 -0.8301
  822SOL    HW2 2523   0.509   4.460   0.977  0.1363 -1.7396 -1.1860
  823SOL     OW 2524   3.627   3.951   2.189  0.0893 -0.0229  0.2761
  823SOL    HW1 2525   3.634   4.005   2.267 -0.3519  3.1074 -1.6672
  823SOL    HW2 2526   3.537   3.919   2.189 -0.9599  2.6589 -0.4413
  824SOL     OW 2527   1.175   1.570   4.076 -0.2104  0.5060 -0.2496
  824SOL    HW1 2528   1.141   1.485   4.106 -0.0370  1.0260  1.5430
  824SOL    HW2 2529   1.150   1.632   4.144 -0.1241  1.8781 -1.4095
  825SOL     OW 2530   3.494   2.399   0.980 -0.3178  0.2805 -0.3281
  825SOL    HW1 2531   3.585   2.426   0.990 -0.5709  0.7967  0.7654
  825SOL    HW2 2532   3.448   2.445   1.050 -0.8485 -2.5994  1.3976
  826SOL     OW 2533   2.503   4.064   0.965 -0.2405  0.0338 -0.0204
  826SOL    HW1 2534   2.532   4.051   1.055 -2.3193 -0.8666  0.5836
  826SOL    HW2 2535   2.510   4.159   0.951 -1.7142  0.4879  1.8183
  827SOL     OW 2536   0.663   1.652   2.095 -0.2558  0.2822  0.2970
  827SOL    HW1 2537   0.711   1.592   2.152  0.9651 -1.3576 -2.3156
  827SOL    HW2 2538   0.609   1.703   2.156  2.1705 -0.1552  3.0723
  828SOL     OW 2539   4.576   1.722   0.761 -0.0025  0.3926 -0.1139
  828SOL    HW1 2540   4.626   1.760   0.834  2.4178 -0.3589 -1.2918
  828SOL    HW2 2541   4.583   1.628   0.773 -1.2514  0.2566 -0.2862
  829SOL     OW 2542   4.107   1.422   0.278 -0.5166 -0.1828  0.2551
  829SOL    HW1 2543   4.178   1.367   0.310 -0.3184 -1.2872 -1.9323
  829SOL    HW2 2544   4.076   1.469   0.356  0.4400 -2.0979  1.8750
  830SOL     OW 2545   4.245   2.047   2.007  0.3995  0.2053 -0.3694
  830SOL    HW1 2546   4.233   2.029   2.100  0.0495  0.1716 -0.4213
  830SOL    HW2 2547   4.316   1.988   1.980  0.1110 -0.1947 -0.2557
  831SOL     OW 2548   0.699   0.750   0.179  0.1018  0.4295 -0.1782
  831SOL    HW1 2549   0.739   0.738   0.092 -0.9293  1.4688 -0.8226
  831SOL    HW2 2550   0.644   0.827   0.169 -0.4868  0.2143  1.2610
  832SOL     OW 2551   2.841   2.342   0.659  0.0457 -0.5487  0.1408
  832SOL    HW1 2552   2.815   2.434   0.655 -2.9017 -1.2340  0.6738
  832SOL    HW2 2553   2.828   2.309   0.570  0.9814 -0.4778 -0.0229
  833SOL     OW 2554   4.430   2.460   0.672  0.4486  0.3983 -0.9370
  833SOL    HW1 2555   4.380   2.531   0.713 -0.0863 -1.6672  2.3801
  833SOL    HW2 2556   4.367   2.388   0.665  1.7686 -0.7795 -1.1379
  834SOL     OW 2557   0.889   2.034   2.474 -0.2177  0.3330 -0.0183
  834SOL    HW1 2558   0.956   2.055   2.540 -0.8954  0.9461  0.4940
  834SOL    HW2 2559   0.938   1.998   2.401  0.7196  1.1574  0.1826
  835SOL     OW 2560   3.556   2.599   4.283 -0.0946  0.0108  0.2205
  835SOL    HW1 2561   3.491   2.541   4.322  0.1576  0.1235  0.8116
  835SOL    HW2 2562   3.559   2.573   4.191 -0.7699 -0.1819  0.2487
  836SOL     OW 2563   3.321   1.202   2.827 -0.4638 -0.2006  0.4827
  836SOL    HW1 2564   3.298   1.121   2.782  0.3603  0.3654 -1.0449
  836SOL    HW2 2565   3.355   1.259   2.757 -0.0440  1.0706  1.6862
  837SOL     OW 2566   2.091   1.483   0.835  0.2355  0.0568 -0.3041
  837SOL    HW1 2567   2.147   1.559   0.849 -0.7278  0.5002  1.4763
  837SOL    HW2 2568   2.123   1.444   0.754  1.4498  1.7348 -0.6861
  838SOL     OW 2569   3.534   1.759   0.522  0.0829  0.2821  0.0218
  838SOL    HW1 2570   3.486   1.699   0.579 -0.9318  0.2044 -0.8767
  838SOL    HW2 2571   3.566   1.704   0.450 -1.0842  0.8080 -0.9530
  839SOL     OW 2572   4.091   1.297   3.379  0.3714  0.4613  0.2994
  839SOL    HW1 2573   4.014   1.265   3.331 -0.1477  2.3637 -0.2258
  839SOL    HW2 2574   4.165   1.259   3.332 -0.2069 -1.7808  1.0869
  840SOL     OW 2575   2.446   2.862   1.139 -0.7204  0.3739 -0.4280
  840SOL    HW1 2576   2.392   2.917   1.082  0.7620  1.2970 -1.0090
  840SOL    HW2 2577   2.506   2.818   1.079  0.5756  1.0233  0.3576
  841SOL     OW 2578   2.774   1.307   0.803 -0.1036 -0.1602  0.0020
  841SOL    HW1 2579   2.838   1.237   0.797 -0.4203 -0.3288 -3.1238
  841SOL    HW2 2580   2.711   1.277   0.869  1.4709 -1.2528  1.0886
  842SOL     OW 2581   4.177   0.689   2.177  0.1482 -0.1840 -0.2942
  842SOL    HW1 2582   4.183   0.602   2.139  0.9353 -0.5754  0.6627
  842SOL    HW2 2583   4.084   0.711   2.174 -0.0360 -0.9912 -0.6809
  843SOL     OW 2584   0.041   1.865   1.574  0.1213  0.8292  0.3945
  843SOL    HW1 2585   0.052   1.770   1.576 -2.3778  0.4668  0.2349
  843SOL    HW2 2586   0.120   1.898   1.531 -0.7934 -1.6012 -3.6460
  844SOL     OW 2587   4.918   1.763   4.839  0.6155  0.3502 -0.5187
  844SOL    HW1 2588   4.868   1.751   4.919  0.6135  1.1562 -0.3935
  844SOL    HW2 2589   4.864   1.722   4.771  2.4586 -4.2014  0.3852
  845SOL     OW 2590   2.548   1.744   2.156  0.3101 -0.1957  0.0701
  845SOL    HW1 2591   2.522   1.674   2.216  0.2818 -0.3523 -0.1220
  845SOL    HW2 2592   2.624   1.709   2.110 -0.4222 -0.5999 -0.8971
  846SOL     OW 2593   1.521   4.502   1.342 -0.1397  0.0823  0.0545
  846SOL    HW1 2594   1.581   4.433   1.370  0.1961  0.4821  0.3316
  846SOL    HW2 2595   1.570   4.550   1.275 -0.7684 -0.5904 -0.9167
  847SOL     OW 2596   4.268   3.526   4.435 -0.0884 -0.0287  0.0960
  847SOL    HW1 2597   4.290   3.491   4.349 -0.2080 -1.4418  0.6194
  847SOL    HW2 2598   4.350   3.565   4.466 -0.4987  2.2364 -1.4116
  848SOL     OW 2599   4.029   3.222   3.726 -0.6324 -0.7447 -0.8731
  848SOL    HW1 2600   4.073   3.308   3.721 -1.6102 -0.2963 -2.3893
  848SOL    HW2 2601   4.064   3.174   3.651  1.9434 -2.7596  1.4147
  849SOL     OW 2602   0.846   2.761   0.051  0.1954 -0.0469 -0.0776
  849SOL    HW1 2603   0.774   2.809   0.092 -0.6064 -0.9780 -0.3422
  849SOL    HW2 2604   0.810   2.732  -0.033  1.0223 -0.1849 -0.3970
  850SOL     OW 2605   4.350   2.270   4.887 -0.3908  0.0287  0.5065
  850SOL    HW1 2606   4.349   2.348   4.943 -1.1764 -0.1523  0.7551
  850SOL    HW2 2607   4.301   2.295   4.809  1.9810  0.7880 -0.8592
  851SOL     OW 2608   0.339   3.229   3.278 -0.4003  0.4972  0.2197
  851SOL    HW1 2609   0.321   3.135   3.283  0.6827  0.2010 -0.8702
  851SOL    HW2 2610   0.277   3.261   3.213  1.3957 -0.1313 -1.9386
  852SOL     OW 2611   4.745   0.922   4.144  0.2630 -0.1292 -0.8105
  852SOL    HW1 2612   4.654   0.910   4.172  0.2132  0.6798 -0.6221
  852SOL    HW2 2613   4.797   0.883   4.215  0.1208  1.4825  0.2196
  853SOL     OW 2614   2.853   2.541   3.535  0.5129 -0.5135  0.2257
  853SOL    HW1 2615   2.803   2.623   3.543  2.5692  0.7663  0.9045
  853SOL    HW2 2616   2.931   2.566   3.485  1.3973 -1.9606  0.8365
  854SOL     OW 2617   0.782   0.551   2.607  0.4972 -0.3716 -0.2665
  854SOL    HW1 2618   0.723   0.481   2.632 -0.2650  0.3225 -0.0732
  854SOL    HW2 2619   0.738   0.595   2.534  0.7212  0.2062 -0.0613
  855SOL     OW 2620   3.046   2.529   2.089 -0.2496 -0.1079 -0.0962
  855SOL    HW1 2621   3.077   2.473   2.161 -0.1937  1.2218  0.9432
  855SOL    HW2 2622   2.958   2.496   2.071  0.0070 -0.9248  0.0821
  856SOL     OW 2623   3.335   3.969   1.271 -0.0496  0.2895  0.0901
  856SOL    HW1 2624   3.399   3.907   1.236 -0.8882 -0.0248 -0.9216
  856SOL    HW2 2625   3.309   3.932   1.355  0.0800 -0.2906 -0.1225
  857SOL     OW 2626   0.262   1.487   0.830  0.5510  0.3421  0.0005
  857SOL    HW1 2627   0.236   1.452   0.916  0.8048 -1.0633 -0.4682
  857SOL    HW2 2628   0.268   1.410   0.774  2.1046  1.0492 -0.8490
  858SOL     OW 2629   4.550   3.010   1.744  0.6076  0.0671 -0.4460
  858SOL    HW1 2630   4.549   2.916   1.762  2.8989  0.1242  0.3976
  858SOL    HW2 2631   4.520   3.050   1.826  0.8669  0.0929 -0.3629
  859SOL     OW 2632   2.341   0.887   2.884  0.0600  0.5003 -0.5654
  859SOL    HW1 2633   2.372   0.871   2.973  0.6395  0.0560 -0.8385
  859SOL    HW2 2634   2.352   0.982   2.872  0.7738  0.4364 -0.4504
  860SOL     OW 2635   1.211   1.016   0.839  0.9253 -0.6677 -0.2910
  860SOL    HW1 2636   1.208   1.086   0.903  0.2329 -1.1474  0.2168
  860SOL    HW2 2637   1.119   1.001   0.816  1.0808 -1.2662 -0.5447
  861SOL     OW 2638   0.540   4.035   1.034  0.5462  0.1290 -0.0502
  861SOL    HW1 2639   0.532   4.086   0.953  0.5515  0.2525  0.0266
  861SOL    HW2 2640   0.550   4.101   1.103  1.1890  0.0081 -0.0203
  862SOL     OW 2641   2.577   3.580   1.459  0.1758  0.2018 -0.6522
  862SOL    HW1 2642   2.589   3.500   1.511 -1.6361  0.0755 -0.3563
  862SOL    HW2 2643   2.487   3.574   1.427 -0.6635  2.9433  0.8475
  863SOL     OW 2644   4.173   0.508   2.405  0.0336  0.1142 -0.1566
  863SOL    HW1 2645   4.107   0.556   2.455 -0.3192 -0.5594  0.0464
  863SOL    HW2 2646   4.213   0.574   2.349 -0.2816  0.6833  0.2721
  864SOL     OW 2647   1.994   3.949   4.934 -0.3723  0.0440 -1.0753
  864SOL    HW1 2648   1.908   3.965   4.974  0.0279 -0.1460 -0.1062
  864SOL    HW2 2649   2.052   3.933   5.009  0.3530 -0.5583 -1.7518
  865SOL     OW 2650   3.600   3.514   1.538  0.3937 -0.3962  0.0137
  865SOL    HW1 2651   3.565   3.492   1.452 -1.3266  1.4055  0.1947
  865SOL    HW2 2652   3.623   3.429   1.576 -1.0856 -1.4466 -1.2748
  866SOL     OW 2653   4.201   1.931   2.273 -0.0041 -0.1317  0.2252
  866SOL    HW1 2654   4.195   1.836   2.265  2.7971 -0.4959  1.1026
  866SOL    HW2 2655   4.152   1.952   2.352 -1.8676 -0.5807 -0.7454
  867SOL     OW 2656   4.043   0.140   1.362 -0.2352  0.0088 -0.5647
  867SOL    HW1 2657   3.954   0.137   1.327 -0.7903 -0.1809  0.8191
  867SOL    HW2 2658   4.060   0.052   1.394 -1.0118  0.8587  2.5784
  868SOL     OW 2659   4.002   1.962   4.604 -0.5328 -0.1515  0.3670
  868SOL    HW1 2660   4.027   2.017   4.530 -1.1550 -1.8290 -1.1749
  868SOL    HW2 2661   4.061   1.989   4.674  2.0471 -0.3606 -1.5319
  869SOL     OW 2662   3.697   3.181   2.649 -0.5191  0.0619 -0.3536
  869SOL    HW1 2663   3.686   3.106   2.707  0.2508 -0.5561 -0.9777
  869SOL    HW2 2664   3.625   3.240   2.672 -1.4194 -1.0719 -0.1684
  870SOL     OW 2665   2.391   3.173   3.440  0.2523  0.5916  0.0235
  870SOL    HW1 2666   2.399   3.176   3.344  0.6675 -0.9185 -0.0116
  870SOL    HW2 2667   2.440   3.249   3.470  3.5686 -1.0100 -0.8443
  871SOL     OW 2668   2.606   3.508   0.909 -0.6235  0.2802 -0.5226
  871SOL    HW1 2669   2.592   3.524   0.816 -2.6486  1.9897 -0.0159
  871SOL    HW2 2670   2.692   3.546   0.927  0.9161 -2.1860 -2.0584
  872SOL     OW 2671   4.294   0.544   3.040 -0.4066  0.6464  0.5085
  872SOL    HW1 2672   4.356   0.617   3.032 -0.1050  0.4163  0.7306
  872SOL    HW2 2673   4.261   0.531   2.951  0.7527 -0.0010  0.1421
  873SOL     OW 2674   4.867   3.071   0.912 -0.1167 -0.2277 -0.2833
  873SOL    HW1 2675   4.868   3.020   0.832  0.6667  0.2238 -0.5714
  873SOL    HW2 2676   4.788   3.125   0.905 -1.4095 -1.9563  0.4083
  874SOL     OW 2677   4.551   3.615   4.951 -0.1170 -0.1326  0.3606
  874SOL    HW1 2678   4.473   3.563   4.972  0.3997 -0.8290  0.5866
  874SOL    HW2 2679   4.576   3.586   4.864  0.4775 -0.6544  0.6976
  875SOL     OW 2680   2.828   3.641   0.946 -0.6657 -0.0625  0.2702
  875SOL    HW1 2681   2.886   3.564   0.941 -0.5388  0.0888 -1.0316
  875SOL    HW2 2682   2.792   3.638   1.034 -1.6177 -2.3406 -0.1064
  876SOL     OW 2683   4.895   1.955   3.243 -0.2979 -0.2037 -0.1776
  876SOL    HW1 2684   4.897   1.981   3.336  2.8533  0.4858 -0.3545
  876SOL    HW2 2685   4.946   1.875   3.240 -0.4091 -0.2377 -1.3446
  877SOL     OW 2686   1.656   2.157   2.895 -0.1584 -0.5718 -0.5316
  877SOL    HW1 2687   1.677   2.203   2.977  0.6327  0.0361 -1.0503
  877SOL    HW2 2688   1.620   2.226   2.838  1.5334 -0.4284 -1.5019
  878SOL     OW 2689   2.628   0.320   3.187 -0.6030 -0.4106 -0.2558
  878SOL    HW1 2690   2.673   0.248   3.230 -0.4468  1.3214  2.8406
  878SOL    HW2 2691   2.692   0.391   3.185 -1.2592  0.1830 -1.6605
  879SOL     OW 2692   0.518   1.576   4.056 -0.1333  0.3450  0.2081
  879SOL    HW1 2693   0.530   1.538   3.969  0.8061  1.6652 -0.2872
  879SOL    HW2 2694   0.572   1.655   4.054  0.2557  0.1724  2.1484
  880SOL     OW 2695   4.605   0.322   0.166  0.3111  0.0432  0.2581
  880SOL    HW1 2696   4.551   0.325   0.087  1.3037  1.7133 -0.3976
  880SOL    HW2 2697   4.559   0.377   0.229  0.7310  0.6500  0.0371
  881SOL     OW 2698   3.703   0.962   1.526  0.0854  0.0940  0.0786
  881SOL    HW1 2699   3.656   0.963   1.442  1.6442  0.2841 -0.8400
  881SOL    HW2 2700   3.741   1.050   1.532 -1.3948  0.6869  1.8598
  882SOL     OW 2701   4.459   3.739   1.343 -0.0514  0.1731 -0.2835
  882SOL    HW1 2702   4.525   3.702   1.402  0.1035  0.5637 -0.2081
  882SOL    HW2 2703   4.383   3.755   1.398  0.6164  2.0151  0.1814
  883SOL     OW 2704   0.019   1.609   4.411  0.4088 -0.2327  0.0146
  883SOL    HW1 2705   0.038   1.530   4.360  1.0995 -1.1471  1.6047
  883SOL    HW2 2706   0.032   1.681   4.350  1.8346 -1.2482 -0.9384
  884SOL     OW 2707   1.605   4.320   4.340  0.1930  0.5100  0.0502
  884SOL    HW1 2708   1.679   4.374   4.316  0.9268 -0.2781  0.4723
  884SOL    HW2 2709   1.533   4.381   4.352  0.9093  1.3429  0.1490
  885SOL     OW 2710   3.519   4.948   2.252  0.5097  0.0289  0.6794
  885SOL    HW1 2711   3.479   4.982   2.332  0.1295 -0.0905  0.5403
  885SOL    HW2 2712   3.583   4.884   2.283  0.2902 -0.0934  0.8830
  886SOL     OW 2713   2.811   0.521   3.880  0.6624 -0.1606  0.0668
  886SOL    HW1 2714   2.716   0.506   3.877  0.7274 -1.1065  1.6116
  886SOL    HW2 2715   2.825   0.569   3.962  1.4768  0.5271 -0.4521
  887SOL     OW 2716   4.602   4.517   3.059  0.0324 -0.4979  0.3211
  887SOL    HW1 2717   4.575   4.600   3.097 -0.1662  0.2160 -1.3069
  887SOL    HW2 2718   4.651   4.473   3.129 -0.5146  0.6412  1.4523
  888SOL     OW 2719   2.705   4.988   2.965  0.1312  0.2147  0.3777
  888SOL    HW1 2720   2.609   4.984   2.966  0.0931 -1.0307 -1.7350
  888SOL    HW2 2721   2.732   4.923   3.030 -0.4841 -0.2554  0.1782
  889SOL     OW 2722   3.188   1.781   1.850  0.5571  0.0586 -0.2763
  889SOL    HW1 2723   3.174   1.869   1.817  1.3349  0.2181 -0.2049
  889SOL    HW2 2724   3.271   1.786   1.898 -0.3778 -0.2307  1.4472
  890SOL     OW 2725   4.494   1.546   2.810 -0.4536 -0.0811 -0.3246
  890SOL    HW1 2726   4.473   1.478   2.746 -1.5979 -0.5598  0.5308
  890SOL    HW2 2727   4.553   1.503   2.872  0.2746  0.2473 -0.7743
  891SOL     OW 2728   2.222   3.837   1.405 -0.1521 -0.1241 -0.0022
  891SOL    HW1 2729   2.244   3.897   1.335  0.1257  0.0473  0.2297
  891SOL    HW2 2730   2.137   3.869   1.437  0.0425  0.2148  0.1896
  892SOL     OW 2731   1.747   2.751   0.161  0.0733  0.1976 -0.1560
  892SOL    HW1 2732   1.694   2.807   0.218 -0.3179  0.9254 -1.1908
  892SOL    HW2 2733   1.709   2.765   0.074 -0.7936 -2.5464 -0.3083
  893SOL     OW 2734   2.557   3.279   0.664 -0.4992 -0.3302 -0.2136
  893SOL    HW1 2735   2.609   3.255   0.741 -1.7010 -0.2551  0.6440
  893SOL    HW2 2736   2.578   3.212   0.600  3.0987  1.3848 -1.1103
  894SOL     OW 2737   1.652   2.522   1.016 -0.2803 -0.0009  0.6890
  894SOL    HW1 2738   1.695   2.585   0.958 -0.7412  0.8133  1.2271
  894SOL    HW2 2739   1.704   2.442   1.006 -1.0111 -0.2646 -1.7457
  895SOL     OW 2740   3.949   0.192   0.930 -0.2822  0.7545  0.0578
  895SOL    HW1 2741   3.992   0.144   1.001  0.5414  0.2784 -0.7519
  895SOL    HW2 2742   4.016   0.203   0.863 -1.4506 -0.2361 -1.3579
  896SOL     OW 2743   3.506   4.963   3.862 -0.0084 -0.3628  0.3060
  896SOL    HW1 2744   3.503   4.890   3.924 -0.7080 -0.4189  0.2128
  896SOL    HW2 2745   3.550   5.033   3.910  0.1673 -0.6677  0.5910
  897SOL     OW 2746   2.027   0.517   2.076  0.1418 -0.0147  0.4415
  897SOL    HW1 2747   2.084   0.457   2.029  0.2612  0.3612  0.1047
  897SOL    HW2 2748   2.017   0.592   2.018 -0.1966  0.1925  0.7593
  898SOL     OW 2749   1.414   3.926   4.339  0.0862 -0.3743  0.1861
  898SOL    HW1 2750   1.329   3.958   4.308  0.1798 -0.6294 -0.3428
  898SOL    HW2 2751   1.478   3.978   4.290  0.2360 -0.3697  0.3868
  899SOL     OW 2752   4.468   4.952   3.369 -0.0105 -0.0748 -0.2609
  899SOL    HW1 2753   4.484   4.975   3.461  1.8015 -0.7805 -0.3632
  899SOL    HW2 2754   4.384   4.994   3.349 -0.9135 -0.6453  1.9662
  900SOL     OW 2755   2.072   4.226   4.365 -0.4705 -0.6303  0.9475
  900SOL    HW1 2756   2.030   4.249   4.448 -1.5506  1.2791 -0.0604
  900SOL    HW2 2757   2.158   4.268   4.369 -0.8360  0.1469  0.7903
  901SOL     OW 2758   0.677   2.764   4.184 -0.1230 -0.5800 -0.0663
  901SOL    HW1 2759   0.752   2.746   4.127 -0.5106  1.9003 -1.5314
  901SOL    HW2 2760   0.712   2.823   4.251 -0.4702 -0.5513  0.0882
  902SOL     OW 2761   1.349   2.076   3.503 -0.3528  0.5413  0.5214
  902SOL    HW1 2762   1.356   2.041   3.592 -1.4914 -0.1761  0.3482
  902SOL    HW2 2763   1.269   2.129   3.504  0.2093  1.4152  0.2031
  903SOL     OW 2764   3.051   4.502   4.124  0.6849  0.0344  0.1447
  903SOL    HW1 2765   2.969   4.470   4.163  1.4576  0.1971  2.0029
  903SOL    HW2 2766   3.025   4.533   4.037 -1.0963 -0.5310  0.4187
  904SOL     OW 2767   2.709   4.599   4.867 -0.3150 -0.0726 -0.4229
  904SOL    HW1 2768   2.762   4.538   4.919 -0.5407  0.6119  0.6421
  904SOL    HW2 2769   2.648   4.543   4.819 -0.7472 -0.6827  0.8029
  905SOL     OW 2770   3.016   2.418   0.213 -0.1161 -0.1997  0.0859
  905SOL    HW1 2771   3.014   2.511   0.233 -0.7577 -0.0069 -0.8314
  905SOL    HW2 2772   3.091   2.385   0.261  2.2343  1.4098 -2.2058
  906SOL     OW 2773   2.445   1.853   0.984  0.6795 -0.6487 -0.1786
  906SOL    HW1 2774   2.406   1.765   0.984 -0.3911 -0.1905  0.3023
  906SOL    HW2 2775   2.488   1.860   0.899 -1.0801 -0.8472 -1.1383
  907SOL     OW 2776   0.540   3.695   3.240  0.0934 -0.5923  0.5078
  907SOL    HW1 2777   0.614   3.754   3.229  1.3469 -1.9740  1.2118
  907SOL    HW2 2778   0.469   3.736   3.189  1.6843  0.1043 -1.2774
  908SOL     OW 2779   3.781   0.819   1.738 -0.1451  0.0236 -0.3320
  908SOL    HW1 2780   3.725   0.866   1.677  0.0355 -0.2937 -0.7452
  908SOL    HW2 2781   3.870   0.847   1.716  0.3429 -2.9754 -2.8813
  909SOL     OW 2782   1.539   0.178   4.157 -0.0659  0.4221 -0.0232
  909SOL    HW1 2783   1.592   0.117   4.105 -1.2165 -0.9928  0.4172
  909SOL    HW2 2784   1.481   0.219   4.093 -0.0805  0.2006 -0.1537
  910SOL     OW 2785   2.917   2.477   1.437 -0.2402 -0.4350 -0.1353
  910SOL    HW1 2786   2.945   2.501   1.525 -1.3130 -0.4450  0.2193
  910SOL    HW2 2787   2.993   2.432   1.399  0.0111 -0.9983  1.0072
  911SOL     OW 2788   2.981   1.761   3.913  0.1824  0.0609  0.4792
  911SOL    HW1 2789   3.043   1.713   3.857  1.4097  2.5556 -0.4833
  911SOL    HW2 2790   3.034   1.830   3.952 -1.0439 -0.5547  3.4709
  912SOL     OW 2791   3.594   2.322   3.157  0.1539 -0.0728  0.8192
  912SOL    HW1 2792   3.599   2.282   3.243 -1.1198 -0.1509  0.8860
  912SOL    HW2 2793   3.588   2.416   3.175  1.5673  0.0552  0.7274
  913SOL     OW 2794   4.676   1.169   2.531  0.3419 -0.4116  0.1822
  913SOL    HW1 2795   4.635   1.127   2.455 -1.6421  0.5471  0.6403
  913SOL    HW2 2796   4.706   1.254   2.498 -2.7362  1.0872  0.8731
  914SOL     OW 2797   0.331   1.552   2.086  0.1251 -0.4409 -0.0845
  914SOL    HW1 2798   0.252   1.604   2.074 -0.3395 -0.9321  0.7708
  914SOL    HW2 2799   0.375   1.554   2.001  0.1730  1.4232 -0.0367
  915SOL     OW 2800   1.532   4.682   1.577  0.2578 -0.1195  0.7413
  915SOL    HW1 2801   1.534   4.606   1.519 -1.6029 -0.6684  1.3195
  915SOL    HW2 2802   1.476   4.744   1.532  1.5866  0.8697  0.3837
  916SOL     OW 2803   2.337   3.884   4.446 -0.2028  0.4102 -0.2193
  916SOL    HW1 2804   2.396   3.948   4.485  1.4828 -1.0582 -0.2304
  916SOL    HW2 2805   2.382   3.854   4.367  1.0696 -3.5714  1.7166
  917SOL     OW 2806   0.904   1.327   0.727 -0.2495 -0.2076  0.3658
  917SOL    HW1 2807   0.850   1.328   0.806 -1.0352  1.3781 -0.1347
  917SOL    HW2 2808   0.865   1.395   0.671  1.3486 -0.0797 -0.6552
  918SOL     OW 2809   4.028   0.420   3.919 -0.3680  0.2486  0.0270
  918SOL    HW1 2810   4.115   0.458   3.929 -0.5537  0.9944 -1.0024
  918SOL    HW2 2811   3.970   0.495   3.905 -0.6197 -0.3845 -2.9627
  919SOL     OW 2812   0.117   4.821   2.050  0.4748 -0.0056 -0.0193
  919SOL    HW1 2813   0.150   4.773   2.126  1.8230  2.3716  1.0324
  919SOL    HW2 2814   0.152   4.774   1.975  1.8364 -0.6120  0.9473
  920SOL     OW 2815   4.783   4.425   3.270 -0.2054 -0.5790 -0.2765
  920SOL    HW1 2816   4.819   4.511   3.246  1.7007 -0.7971  1.5065
  920SOL    HW2 2817   4.807   4.414   3.362 -2.5403 -2.0199  0.2399
  921SOL     OW 2818   4.141   0.114   2.145 -0.2380  0.1935 -0.2231
  921SOL    HW1 2819   4.139   0.026   2.106  0.0708  0.7622 -1.5924
  921SOL    HW2 2820   4.074   0.163   2.096 -2.1994  0.1125  2.1796
  922SOL     OW 2821   4.501   0.562   1.672  0.0920  0.1048  0.1921
  922SOL    HW1 2822   4.480   0.499   1.604  0.8031 -0.7139  0.7021
  922SOL    HW2 2823   4.594   0.546   1.692 -0.0335  0.5007  1.1606
  923SOL     OW 2824   3.576   3.872   4.000 -0.1012  0.2445  0.1382
  923SOL    HW1 2825   3.489   3.867   4.038 -0.4121 -0.0814 -0.5925
  923SOL    HW2 2826   3.610   3.782   4.006 -0.1703  0.1787 -0.3708
  924SOL     OW 2827   0.965   0.624   0.742  0.2947 -0.0698 -0.0749
  924SOL    HW1 2828   0.909   0.675   0.685  0.0906  0.2250  0.3838
  924SOL    HW2 2829   1.003   0.688   0.802 -0.8742 -0.5821  1.2727
  925SOL     OW 2830   0.519   4.421   3.667 -0.0957  0.1490 -0.5481
  925SOL    HW1 2831   0.478   4.483   3.606  1.9063  0.7275 -1.3927
  925SOL    HW2 2832   0.448   4.394   3.725 -1.8528  0.4125 -2.4448
  926SOL     OW 2833   2.285   3.482   2.524 -0.0425 -0.7599 -0.3763
  926SOL    HW1 2834   2.261   3.567   2.488 -0.0421 -0.4229  0.3895
  926SOL    HW2 2835   2.218   3.422   2.491 -1.4910 -0.0067  1.0125
  927SOL     OW 2836   4.408   0.353   1.088 -0.2431 -0.5486 -0.2128
  927SOL    HW1 2837   4.345   0.356   1.016  0.1696 -0.3894 -0.5729
  927SOL    HW2 2838   4.354   0.348   1.166 -0.7341  0.4012 -0.4680
  928SOL     OW 2839   4.792   4.307   4.331 -0.0669 -0.1956  0.1534
  928SOL    HW1 2840   4.870   4.270   4.374  2.2358  1.2560 -2.4316
  928SOL    HW2 2841   4.738   4.230   4.310  1.2467 -1.3988  0.9960
  929SOL     OW 2842   0.952   3.693   1.247 -0.0035 -0.4654 -0.5395
  929SOL    HW1 2843   0.884   3.760   1.244  0.1707 -0.2373  0.3441
  929SOL    HW2 2844   0.904   3.611   1.260 -0.1510 -0.3928 -0.6213
  930SOL     OW 2845   3.949   3.189   0.618  0.0871  0.0464 -0.8607
  930SOL    HW1 2846   3.878   3.150   0.669  0.0073  0.5392 -0.5799
  930SOL    HW2 2847   4.015   3.213   0.684 -0.4452  1.5949 -0.8619
  931SOL     OW 2848   3.963   1.720   2.730 -0.0927  0.3403  0.1662
  931SOL    HW1 2849   4.044   1.675   2.706  0.4136  0.5263  1.4105
  931SOL    HW2 2850   3.987   1.769   2.809 -0.9307  1.8838 -0.5096
  932SOL     OW 2851   0.251   3.906   0.255  0.3632  0.1611 -0.5069
  932SOL    HW1 2852   0.292   3.951   0.329 -1.5962  0.9231  0.1778
  932SOL    HW2 2853   0.286   3.817   0.259 -0.8697 -0.2883  2.3505
  933SOL     OW 2854   4.801   1.430   0.183  0.2346  0.0358  0.7885
  933SOL    HW1 2855   4.726   1.478   0.218  0.0647 -0.1856  0.7340
  933SOL    HW2 2856   4.764   1.378   0.111  0.4432 -0.0676  0.7571
  934SOL     OW 2857   1.227   1.085   1.484  0.2528  0.5201  0.2191
  934SOL    HW1 2858   1.246   0.994   1.462  2.1713  1.0179 -0.3325
  934SOL    HW2 2859   1.202   1.125   1.400 -1.4007  0.3660  0.5910
  935SOL     OW 2860   1.205   2.497   4.220 -0.0880  0.0189  0.0440
  935SOL    HW1 2861   1.269   2.503   4.149 -0.0731 -0.7425 -0.0156
  935SOL    HW2 2862   1.143   2.429   4.191 -0.1580 -0.1989  0.6922
  936SOL     OW 2863   2.750   2.899   1.799 -0.1100 -1.0626 -0.0486
  936SOL    HW1 2864   2.763   2.869   1.709  0.6549 -0.7931 -0.0314
  936SOL    HW2 2865   2.803   2.839   1.852  0.1472 -0.6651  0.1404
  937SOL     OW 2866   1.501   4.614   3.902 -0.0470  0.0011 -0.0464
  937SOL    HW1 2867   1.456   4.619   3.986 -2.0278  1.7379 -1.1239
  937SOL    HW2 2868   1.489   4.524   3.873  0.5955 -0.5936  1.4563
  938SOL     OW 2869   0.014   2.031   3.604  0.0562  0.1581  0.2037
  938SOL    HW1 2870   0.068   2.054   3.529 -2.2227  0.5076 -1.4272
  938SOL    HW2 2871   0.058   1.957   3.645  2.3113  1.1224 -0.3581
  939SOL     OW 2872   2.051   4.914   3.638  0.2010  0.2583  0.0069
  939SOL    HW1 2873   2.004   4.997   3.645  0.4924  0.6215 -1.7473
  939SOL    HW2 2874   2.139   4.940   3.609  0.4642 -0.6245  0.0073
  940SOL     OW 2875   0.661   3.025   2.281 -0.0598  0.4547 -0.0540
  940SOL    HW1 2876   0.567   3.039   2.269  0.0002  1.1540  0.2282
  940SOL    HW2 2877   0.671   2.930   2.282 -0.7535  0.3727 -0.1658
  941SOL     OW 2878   1.959   4.295   4.594 -0.1279 -0.4119 -0.4169
  941SOL    HW1 2879   2.018   4.235   4.639 -0.8027 -1.6363 -1.1021
  941SOL    HW2 2880   1.876   4.286   4.641 -0.1743  0.1490 -0.3921
  942SOL     OW 2881   1.204   3.765   1.338 -0.1679 -0.3056 -0.0008
  942SOL    HW1 2882   1.116   3.735   1.319 -0.3158 -0.5620  1.0075
  942SOL    HW2 2883   1.248   3.689   1.376  0.6911 -0.3630 -1.0711
  943SOL     OW 2884   3.345   2.314   3.466  0.3968  0.3887 -0.2002
  943SOL    HW1 2885   3.433   2.328   3.501 -0.0006 -1.5505  1.7950
  943SOL    HW2 2886   3.288   2.359   3.529 -0.1606 -0.5157 -0.0506
  944SOL     OW 2887   1.381   0.423   4.784 -0.5700  0.5269  0.0214
  944SOL    HW1 2888   1.436   0.392   4.856 -0.7328 -1.1868 -0.5367
  944SOL    HW2 2889   1.440   0.474   4.729  0.1866 -0.2690  0.0637
  945SOL     OW 2890   0.066   1.403   2.356 -0.2147 -0.3905 -0.0185
  945SOL    HW1 2891   0.154   1.380   2.326 -0.0488  0.8242 -0.5583
  945SOL    HW2 2892   0.024   1.443   2.279 -1.1663 -0.7678  0.2925
  946SOL     OW 2893   1.637   2.477   0.043 -0.4403 -0.0503  0.3024
  946SOL    HW1 2894   1.655   2.485   0.137 -1.5128  1.5827  0.3925
  946SOL    HW2 2895   1.708   2.526   0.001  0.2853 -1.1391  0.2006
  947SOL     OW 2896   0.879   2.633   3.637  0.3912  0.3465 -0.2624
  947SOL    HW1 2897   0.969   2.610   3.612  0.8271  0.5349  1.0128
  947SOL    HW2 2898   0.838   2.550   3.660  0.1340  0.2247 -1.1625
  948SOL     OW 2899   4.509   1.882   0.307 -0.0197 -0.3356  0.2944
  948SOL    HW1 2900   4.522   1.885   0.402 -0.5374  0.5198  0.3458
  948SOL    HW2 2901   4.482   1.970   0.284  0.3148 -0.4807 -0.6906
  949SOL     OW 2902   2.871   4.354   3.820  0.3822 -0.0520  0.2318
  949SOL    HW1 2903   2.887   4.330   3.728 -3.0209  0.7392 -0.7018
  949SOL    HW2 2904   2.885   4.449   3.822 -0.3325  0.0581  0.3010
  950SOL     OW 2905   1.942   4.174   1.256  0.8451  0.3648  0.0804
  950SOL    HW1 2906   1.922   4.113   1.185  1.6635  0.3625 -0.1569
  950SOL    HW2 2907   1.979   4.120   1.325  0.0248  0.3640  0.5323
  951SOL     OW 2908   4.830   1.556   1.055  0.0916 -0.2074  0.3432
  951SOL    HW1 2909   4.912   1.586   1.094  0.7841 -2.5345  0.8275
  951SOL    HW2 2910   4.762   1.595   1.110  0.8739  0.9290  0.5445
  952SOL     OW 2911   0.615   0.698   0.923  0.0222  0.2450  0.4210
  952SOL    HW1 2912   0.586   0.627   0.981 -1.3634  1.2194  0.9689
  952SOL    HW2 2913   0.562   0.688   0.845 -0.3647  0.8404  0.6083
  953SOL     OW 2914   1.570   3.170   1.059 -0.3050  0.1709 -0.1587
  953SOL    HW1 2915   1.637   3.102   1.067 -0.6310 -0.2388 -0.8124
  953SOL    HW2 2916   1.548   3.194   1.149  1.2200  0.8204  0.0606
  954SOL     OW 2917   3.517   1.752   2.187  0.5295 -0.0975  0.2007
  954SOL    HW1 2918   3.503   1.664   2.220  1.9640  0.1627  1.6211
  954SOL    HW2 2919   3.612   1.763   2.186  0.4385  0.9955 -1.1959
  955SOL     OW 2920   1.424   4.255   2.830  0.0145  0.5662 -0.6340
  955SOL    HW1 2921   1.350   4.293   2.783  0.3290  0.2288 -1.4188
  955SOL    HW2 2922   1.387   4.181   2.878 -0.3983  1.2015  0.0453
  956SOL     OW 2923   2.382   4.549   0.398 -0.2941 -0.1327 -0.4602
  956SOL    HW1 2924   2.374   4.629   0.347 -0.8084 -0.4150 -0.8326
  956SOL    HW2 2925   2.306   4.550   0.456  0.6666  0.5499  0.8466
  957SOL     OW 2926   4.326   3.758   4.829  0.4228  0.0157  0.0968
  957SOL    HW1 2927   4.363   3.671   4.841  0.2959 -0.1222 -0.4637
  957SOL    HW2 2928   4.359   3.809   4.903  2.0111 -0.0221 -0.5511
  958SOL     OW 2929   0.310   4.909   0.952 -0.2976 -0.5306 -0.1450
  958SOL    HW1 2930   0.222   4.927   0.920  0.3017  0.9699 -1.0188
  958SOL    HW2 2931   0.354   4.864   0.880  0.1155  0.0865 -0.2817
  959SOL     OW 2932   0.677   3.441   3.261  0.0039 -0.4194 -0.7348
  959SOL    HW1 2933   0.624   3.519   3.276 -0.0289 -0.7151  0.8709
  959SOL    HW2 2934   0.638   3.400   3.184 -1.9110 -0.4295  0.1712
  960SOL     OW 2935   4.796   4.636   0.073  0.1627 -0.0226  0.5857
  960SOL    HW1 2936   4.749   4.569   0.022 -0.6573 -0.2065  1.5512
  960SOL    HW2 2937   4.885   4.602   0.081  0.4798  0.2759 -1.1784
  961SOL     OW 2938   1.219   1.462   1.493 -0.1431  0.2235 -0.0324
  961SOL    HW1 2939   1.314   1.463   1.485 -0.2465  0.7456 -1.5011
  961SOL    HW2 2940   1.187   1.486   1.406 -1.6176  0.4203  0.5292
  962SOL     OW 2941   2.316   2.491   2.887 -0.1743 -0.2528  0.1951
  962SOL    HW1 2942   2.261   2.520   2.813 -1.3089 -1.1635  0.6471
  962SOL    HW2 2943   2.283   2.541   2.961  0.2114 -0.1570  0.3015
  963SOL     OW 2944   3.613   0.913   1.273  0.2075 -0.4230  0.0770
  963SOL    HW1 2945   3.696   0.899   1.227 -0.5314 -1.8486 -0.8879
  963SOL    HW2 2946   3.564   0.832   1.260 -1.8592  0.8354 -0.4794
  964SOL     OW 2947   3.815   3.798   3.018 -0.1249 -0.0592 -0.0255
  964SOL    HW1 2948   3.781   3.758   2.938 -0.2879 -0.5273  0.2746
  964SOL    HW2 2949   3.841   3.886   2.991 -2.4508  0.6832 -0.0894
  965SOL     OW 2950   1.430   4.254   2.362  0.7943 -0.0374  0.0198
  965SOL    HW1 2951   1.367   4.182   2.358  1.3094 -0.5642  1.2373
  965SOL    HW2 2952   1.386   4.326   2.317  0.4633 -1.2270 -1.6702
  966SOL     OW 2953   3.573   3.260   4.203  0.3642  0.0689 -0.1127
  966SOL    HW1 2954   3.584   3.283   4.295 -4.8244 -1.6613  1.3208
  966SOL    HW2 2955   3.600   3.168   4.198 -1.6022 -0.5778  0.4076
  967SOL     OW 2956   3.341   3.217   4.888 -0.3958 -0.1897  0.0221
  967SOL    HW1 2957   3.424   3.238   4.932  0.3647 -1.5764 -0.6702
  967SOL    HW2 2958   3.320   3.295   4.838  0.7657  0.0261 -0.1660
  968SOL     OW 2959   2.224   2.520   2.449  0.8824 -0.3783  0.6566
  968SOL    HW1 2960   2.229   2.501   2.543  1.7848  0.6066  0.8347
  968SOL    HW2 2961   2.164   2.455   2.414  2.4941 -2.4288  1.4884
  969SOL     OW 2962   0.900   3.232   2.877 -0.0460 -0.2093  0.0081
  969SOL    HW1 2963   0.896   3.165   2.809 -0.3361 -0.6192  0.4221
  969SOL    HW2 2964   0.965   3.295   2.845 -0.0685 -0.4759 -0.5729
  970SOL     OW 2965   1.308   1.814   0.830  0.4352 -0.0477 -0.3792
  970SOL    HW1 2966   1.217   1.827   0.860  0.3057  0.4064 -0.9546
  970SOL    HW2 2967   1.350   1.899   0.845  0.8759 -0.3699  0.2464
  971SOL     OW 2968   0.312   0.987   3.348 -0.1526 -0.5152  0.4942
  971SOL    HW1 2969   0.280   1.002   3.438  0.1765  0.5844  0.4521
  971SOL    HW2 2970   0.339   1.074   3.319  0.2808 -0.9687 -0.4729
  972SOL     OW 2971   3.414   0.513   3.773 -0.3312 -0.3280 -0.6355
  972SOL    HW1 2972   3.458   0.429   3.783  2.1293  0.9198 -0.1582
  972SOL    HW2 2973   3.424   0.534   3.680  1.3101  0.5245 -0.3014
  973SOL     OW 2974   1.916   4.071   3.570  0.1351 -0.3800 -0.2635
  973SOL    HW1 2975   1.983   4.015   3.611 -0.9059 -0.0767  2.0157
  973SOL    HW2 2976   1.961   4.112   3.496  2.9512  0.8623  1.9523
  974SOL     OW 2977   3.667   4.291   2.019 -0.3375  0.2701  0.2985
  974SOL    HW1 2978   3.643   4.321   1.932 -1.4172  0.6371  0.6990
  974SOL    HW2 2979   3.584   4.285   2.066  0.3985  3.6676  2.4105
  975SOL     OW 2980   1.446   0.938   4.318  0.2192  0.1766 -0.4553
  975SOL    HW1 2981   1.451   1.033   4.319 -0.0090  0.1891 -0.3456
  975SOL    HW2 2982   1.405   0.916   4.234 -2.1962  0.3167  0.6194
  976SOL     OW 2983   2.524   4.590   1.288  0.5894  0.0357 -0.3922
  976SOL    HW1 2984   2.564   4.634   1.213 -0.7191 -1.3269 -1.9666
  976SOL    HW2 2985   2.577   4.511   1.300 -0.5640 -0.9585 -1.4694
  977SOL     OW 2986   0.937   1.154   3.423  0.2437  0.0107 -0.2302
  977SOL    HW1 2987   1.018   1.202   3.438  1.1009 -1.3393 -0.3751
  977SOL    HW2 2988   0.949   1.071   3.471 -1.3566  0.0960  0.3691
  978SOL     OW 2989   4.986   3.783   1.892  0.0711 -0.1682 -0.2354
  978SOL    HW1 2990   4.902   3.738   1.900 -0.4008  0.5991 -0.7263
  978SOL    HW2 2991   4.997   3.797   1.798  0.5552  0.0982 -0.1449
  979SOL     OW 2992   1.894   4.283   0.987 -0.3319  0.0049  0.2588
  979SOL    HW1 2993   1.883   4.206   1.043 -0.6047 -0.6811 -0.7172
  979SOL    HW2 2994   1.886   4.249   0.898  0.0753  1.0812 -0.2005
  980SOL     OW 2995   4.592   1.479   1.839  0.2622 -0.1089  0.3049
  980SOL    HW1 2996   4.517   1.431   1.806  0.9887 -0.3488 -1.0696
  980SOL    HW2 2997   4.637   1.417   1.897 -0.5572  0.0311  1.1188
  981SOL     OW 2998   1.594   0.585   3.979  0.0685  0.2571  0.5541
  981SOL    HW1 2999   1.632   0.498   3.991 -0.9805 -0.5193 -1.3089
  981SOL    HW2 3000   1.659   0.632   3.928  0.4200  0.4022  1.1322
  982SOL     OW 3001   4.160   2.458   2.690 -0.1519  0.1833  0.3863
  982SOL    HW1 3002   4.234   2.402   2.666 -0.2657  0.8943 -1.9209
  982SOL    HW2 3003   4.198   2.545   2.699 -0.6206  0.4926 -0.4714
  983SOL     OW 3004   3.216   4.486   0.061 -0.5462  0.3563  0.8074
  983SOL    HW1 3005   3.220   4.580   0.074  1.4855  0.2784  1.1816
  983SOL    HW2 3006   3.281   4.451   0.123  0.2381 -1.0882 -0.7471
  984SOL     OW 3007   4.115   2.188   0.125 -0.2177 -0.2381 -0.1037
  984SOL    HW1 3008   4.036   2.186   0.179 -1.2759 -0.7359 -1.5960
  984SOL    HW2 3009   4.085   2.220   0.040  0.9092 -1.6982 -1.1074
  985SOL     OW 3010   2.967   2.893   1.601  0.5985  0.3811  0.3113
  985SOL    HW1 3011   2.961   2.803   1.634  0.1812 -0.2377 -1.3724
  985SOL    HW2 3012   3.055   2.899   1.565 -0.2583 -0.3019 -2.0732
  986SOL     OW 3013  -0.004   2.222   1.820 -0.2306  0.4395  0.3495
  986SOL    HW1 3014  -0.026   2.303   1.774  0.0843  0.0662 -0.4885
  986SOL    HW2 3015   0.092   2.223   1.824 -0.2403  0.2707  0.6319
  987SOL     OW 3016   3.286   2.500   2.304 -0.5600  0.3103  0.0837
  987SOL    HW1 3017   3.369   2.472   2.344 -0.9080  0.6111  1.0425
  987SOL    HW2 3018   3.239   2.419   2.285 -0.5736  0.1757  0.6882
  988SOL     OW 3019   2.940   2.053   1.498  0.0718  0.2856  0.0130
  988SOL    HW1 3020   2.938   1.958   1.506 -0.0471  0.1290 -1.6312
  988SOL    HW2 3021   3.012   2.080   1.555  0.0302 -0.7628  0.5917
  989SOL     OW 3022   1.551   2.851   2.021  0.6809 -0.4114 -0.6719
  989SOL    HW1 3023   1.481   2.896   1.974  1.2538 -0.5318 -1.6612
  989SOL    HW2 3024   1.507   2.809   2.095  0.0609  1.3791  0.0348
  990SOL     OW 3025   3.075   2.377   1.700  0.3592  0.0665  0.1631
  990SOL    HW1 3026   3.133   2.333   1.638 -0.6681  0.1289 -0.8799
  990SOL    HW2 3027   3.118   2.366   1.785  0.3374 -2.6646 -0.0843
  991SOL     OW 3028   4.652   1.717   2.026 -0.2318 -0.4907 -0.4648
  991SOL    HW1 3029   4.698   1.787   1.981  0.0976  1.1655  2.2295
  991SOL    HW2 3030   4.666   1.640   1.972  2.2906  0.8007 -1.8144
  992SOL     OW 3031   1.847   2.662   0.851  0.1914  0.2670 -0.0544
  992SOL    HW1 3032   1.897   2.707   0.782  2.6808 -1.5678  0.4013
  992SOL    HW2 3033   1.890   2.577   0.860 -1.5201 -0.4663  2.1866
  993SOL     OW 3034   4.873   2.625   3.016 -0.1888  0.5889 -0.2381
  993SOL    HW1 3035   4.816   2.625   2.938 -1.6446 -0.1039  0.7709
  993SOL    HW2 3036   4.913   2.538   3.016 -0.1521  0.6059 -0.2248
  994SOL     OW 3037   0.757   2.191   4.741  0.2711 -0.3580  0.1153
  994SOL    HW1 3038   0.755   2.220   4.649  0.6071 -0.8761 -0.0582
  994SOL    HW2 3039   0.666   2.174   4.762  0.2915 -1.2090 -0.4416
  995SOL     OW 3040   4.935   0.516   3.228 -0.1417 -0.0228 -0.1873
  995SOL    HW1 3041   4.964   0.494   3.140  0.1076 -1.4861  0.2286
  995SOL    HW2 3042   5.014   0.510   3.282 -0.0252  2.1690 -0.0562
  996SOL     OW 3043   1.752   3.939   3.362  0.2067 -0.0243 -0.2700
  996SOL    HW1 3044   1.790   3.853   3.343 -0.3708 -0.3940  0.1973
  996SOL    HW2 3045   1.805   3.973   3.434  0.7962  0.2724 -0.8278
  997SOL     OW 3046   2.619   3.010   2.345  0.3493 -0.0394 -0.0747
  997SOL    HW1 3047   2.650   2.981   2.431 -0.0246 -1.5831 -0.4323
  997SOL    HW2 3048   2.659   2.948   2.283  1.6256  1.7671 -1.1812
  998SOL     OW 3049   3.612   2.181   3.738 -0.7483 -0.4647 -0.4398
  998SOL    HW1 3050   3.524   2.210   3.759 -0.8559 -1.2276  0.2181
  998SOL    HW2 3051   3.600   2.100   3.689 -0.4178 -1.3580  0.8858
  999SOL     OW 3052   3.178   3.821   3.908  0.0966 -0.2375  0.2263
  999SOL    HW1 3053   3.149   3.820   4.000  2.3898  1.3187  1.0757
  999SOL    HW2 3054   3.256   3.766   3.908  0.8768  0.8280 -0.4549
 1000SOL     OW 3055   2.793   1.065   4.509 -0.0006  0.1119  0.2333
 1000SOL    HW1 3056   2.719   1.004   4.507 -0.3210  0.5242 -1.1323
 1000SOL    HW2 3057   2.813   1.075   4.602 -0.1331 -1.8277  0.5053
 1001SOL     OW 3058   4.524   2.162   2.807 -0.1591 -0.6081 -0.1600
 1001SOL    HW1 3059   4.496   2.077   2.841 -0.2149 -1.0802 -1.3197
 1001SOL    HW2 3060   4.590   2.193   2.869 -0.2826 -1.4088  0.3821
 1002SOL     OW 3061   0.298   4.565   2.747 -0.0537  0.2309  0.3192
 1002SOL    HW1 3062   0.347   4.618   2.810  1.6318 -0.0538 -0.6703
 1002SOL    HW2 3063   0.302   4.616   2.666  0.4298 -0.7772 -0.3038
 1003SOL     OW 3064   1.712   3.666   4.857  0.5012 -0.3914 -0.5450
 1003SOL    HW1 3065   1.688   3.727   4.927  0.6543 -1.3595  0.3660
 1003SOL    HW2 3066   1.807   3.661   4.860  0.4920 -0.6441 -0.6521
 1004SOL     OW 3067   2.096   4.496   3.160 -0.0830 -0.4374 -0.1768
 1004SOL    HW1 3068   2.158   4.433   3.197 -1.2272 -0.1903  2.3616
 1004SOL    HW2 3069   2.016   4.444   3.145 -0.1938 -0.1369 -0.6634
 1005SOL     OW 3070   1.222   0.366   1.462 -0.8962 -0.1888  0.3733
 1005SOL    HW1 3071   1.220   0.340   1.554 -0.4167  0.7152  0.6522
 1005SOL    HW2 3072   1.300   0.323   1.426 -0.4467  0.3492  0.6810
 1006SOL     OW 3073   0.802   4.509   1.587 -0.5121  0.3009  0.3332
 1006SOL    HW1 3074   0.850   4.428   1.568 -2.2723 -0.5111 -1.0421
 1006SOL    HW2 3075   0.859   4.579   1.555  0.1411 -0.5546 -0.4392
 1007SOL     OW 3076   0.509   0.297   3.698  0.2546 -0.1325 -0.3810
 1007SOL    HW1 3077   0.425   0.303   3.744 -1.3235  0.2949 -3.1309
 1007SOL    HW2 3078   0.504   0.362   3.629  1.7693 -1.8559 -2.2525
 1008SOL     OW 3079   4.173   1.438   4.151  0.2230  0.6472  0.5310
 1008SOL    HW1 3080   4.117   1.487   4.091  1.9293  0.5484 -1.2382
 1008SOL    HW2 3081   4.199   1.360   4.102  1.0372  0.1561  1.6948
 1009SOL     OW 3082   1.435   0.926   0.357 -0.0466  0.1492 -0.4965
 1009SOL    HW1 3083   1.457   1.018   0.340  0.1587  0.5337  1.5939
 1009SOL    HW2 3084   1.434   0.919   0.452  3.7043 -2.9032 -0.4647
 1010SOL     OW 3085   1.398   2.348   2.328  0.0589 -0.2648 -1.1542
 1010SOL    HW1 3086   1.411   2.441   2.313  0.1279  0.6785  3.4221
 1010SOL    HW2 3087   1.479   2.319   2.371 -0.7787 -1.8862 -0.5899
 1011SOL     OW 3088   3.449   3.323   2.652  0.2832 -0.2057  0.5269
 1011SOL    HW1 3089   3.444   3.394   2.715  0.8992  0.0665  0.2798
 1011SOL    HW2 3090   3.359   3.309   2.624 -0.2387 -1.4661  2.6895
 1012SOL     OW 3091   1.575   3.004   3.240 -0.3489 -0.3651  0.6017
 1012SOL    HW1 3092   1.579   3.094   3.208 -1.3215 -0.7211 -0.5789
 1012SOL    HW2 3093   1.666   2.982   3.263  0.3872 -0.0113 -1.7445
 1013SOL     OW 3094   3.531   3.734   3.485  0.0613 -0.3417  0.0021
 1013SOL    HW1 3095   3.601   3.673   3.508  0.5285  1.0487  2.6471
 1013SOL    HW2 3096   3.542   3.807   3.546 -2.9844  0.4791 -0.2797
 1014SOL     OW 3097   1.547   3.060   4.082  0.2515  0.0235 -0.6225
 1014SOL    HW1 3098   1.504   2.976   4.064 -1.6900  0.6239  0.9661
 1014SOL    HW2 3099   1.492   3.102   4.148  2.7671  1.2994  0.8011
 1015SOL     OW 3100   0.809   4.527   0.436  0.0225 -0.7011 -0.1682
 1015SOL    HW1 3101   0.775   4.564   0.517 -0.0197 -0.3440 -0.3481
 1015SOL    HW2 3102   0.861   4.452   0.464 -1.0385 -1.3597  0.1066
 1016SOL     OW 3103   3.848   4.824   1.831  0.6612  0.1438  0.4420
 1016SOL    HW1 3104   3.921   4.885   1.843 -0.3737  1.9576 -1.6719
 1016SOL    HW2 3105   3.794   4.837   1.909  0.3640  2.1842 -0.0384
 1017SOL     OW 3106   4.761   4.805   2.013 -0.3725  0.3164  0.2832
 1017SOL    HW1 3107   4.801   4.824   2.098  0.9279 -0.4866 -0.1279
 1017SOL    HW2 3108   4.734   4.891   1.979 -1.0487  0.6352  1.5509
 1018SOL     OW 3109   0.270   2.482   0.499 -0.2813 -0.2829  0.3968
 1018SOL    HW1 3110   0.178   2.456   0.491 -0.9409  2.2263 -1.5381
 1018SOL    HW2 3111   0.315   2.433   0.429 -0.8162  0.8450 -0.7869
 1019SOL     OW 3112   2.663   0.827   1.067 -0.4004  0.6004  0.4486
 1019SOL    HW1 3113   2.734   0.764   1.055 -1.4632 -0.7827  1.1842
 1019SOL    HW2 3114   2.681   0.868   1.151  0.9165  2.1645 -0.5413
 1020SOL     OW 3115   2.056   3.833   3.156  0.1230  0.2982 -0.2264
 1020SOL    HW1 3116   1.991   3.888   3.113  1.1483  1.2329 -0.6573
 1020SOL    HW2 3117   2.105   3.894   3.212  0.8824 -0.2870 -0.2316
 1021SOL     OW 3118   4.717   1.662   1.327  0.2199  0.5098  0.3193
 1021SOL    HW1 3119   4.648   1.608   1.364  1.7906 -0.7540  1.5094
 1021SOL    HW2 3120   4.677   1.748   1.317 -1.6324 -0.2785  0.5898
 1022SOL     OW 3121   4.673   4.810   1.478  0.0226 -0.1247  0.1581
 1022SOL    HW1 3122   4.737   4.821   1.548 -1.1789  2.1794  1.0081
 1022SOL    HW2 3123   4.621   4.734   1.503  0.6866 -0.3497  0.8706
 1023SOL     OW 3124   1.413   0.773   1.069 -0.9419 -0.4080 -0.2275
 1023SOL    HW1 3125   1.415   0.678   1.085 -0.2476 -0.3907 -0.1943
 1023SOL    HW2 3126   1.388   0.810   1.154  1.6663 -0.3900  0.6068
 1024SOL     OW 3127   0.542   4.095   1.603 -0.0216  0.3244 -0.0742
 1024SOL    HW1 3128   0.571   4.019   1.553 -2.0144 -0.4755 -0.0918
 1024SOL    HW2 3129   0.607   4.104   1.673  0.2240 -1.4181 -0.0549
 1025SOL     OW 3130   2.167   1.645   4.429 -0.4201  0.1348  0.0582
 1025SOL    HW1 3131   2.244   1.684   4.471 -0.1593  0.7308 -0.9127
 1025SOL    HW2 3132   2.132   1.584   4.493 -0.1764  1.1628  1.2161
 1026SOL     OW 3133   2.150   2.008   4.439  0.2992  0.4088 -0.3278
 1026SOL    HW1 3134   2.152   1.930   4.496  2.0524  0.2541 -0.5311
 1026SOL    HW2 3135   2.207   1.985   4.365  0.8854  1.8810 -0.3728
 1027SOL     OW 3136   0.545   3.721   0.703 -0.0476  0.2968 -0.0433
 1027SOL    HW1 3137   0.552   3.626   0.709 -0.0039  0.1326 -1.9161
 1027SOL    HW2 3138   0.459   3.742   0.742 -0.7142 -0.6877 -0.9310
 1028SOL     OW 3139   0.523   2.514   1.304  0.5080  0.7472 -0.4187
 1028SOL    HW1 3140   0.487   2.473   1.383  0.4093  1.6956  0.0566
 1028SOL    HW2 3141   0.592   2.455   1.275  0.4215  0.2857  0.2839
 1029SOL     OW 3142   4.463   2.689   3.670 -0.1466 -0.6300 -0.2027
 1029SOL    HW1 3143   4.369   2.700   3.684  0.0613  0.8878  0.1923
 1029SOL    HW2 3144   4.494   2.777   3.646  1.2924 -0.9173  0.5158
 1030SOL     OW 3145   1.391   0.565   2.653  0.1289  0.5958 -0.2770
 1030SOL    HW1 3146   1.451   0.517   2.595 -1.1381 -2.4597  0.7294
 1030SOL    HW2 3147   1.309   0.569   2.603 -0.6175 -0.9975  0.7307
 1031SOL     OW 3148   2.278   3.834   1.947  0.0694  0.6654  0.5115
 1031SOL    HW1 3149   2.274   3.819   1.853  1.3041  0.0009  0.5447
 1031SOL    HW2 3150   2.188   3.822   1.977 -0.2818  0.5874 -0.5295
 1032SOL     OW 3151   4.185   1.713   3.556 -0.5112  0.0637 -1.1375
 1032SOL    HW1 3152   4.229   1.794   3.529  0.7654 -0.1948  0.0610
 1032SOL    HW2 3153   4.175   1.721   3.651 -2.6732 -0.1183 -1.2924
 1033SOL     OW 3154   2.475   1.377   0.237 -0.2410 -0.3105  0.2672
 1033SOL    HW1 3155   2.567   1.360   0.254  0.5180  0.7044 -2.2936
 1033SOL    HW2 3156   2.459   1.464   0.273  0.5874  0.6513 -1.5501
 1034SOL     OW 3157   2.916   3.021   4.946  0.4931  0.7878 -0.4229
 1034SOL    HW1 3158   2.983   2.958   4.972  2.1882  2.1712 -1.2131
 1034SOL    HW2 3159   2.948   3.058   4.863 -0.4893  2.5477 -0.0814
 1035SOL     OW 3160   0.889   1.345   2.715  0.1246 -0.0686 -0.0425
 1035SOL    HW1 3161   0.964   1.287   2.725 -0.4872 -0.9834 -0.6613
 1035SOL    HW2 3162   0.874   1.349   2.620 -2.2141 -2.0394  0.1523
 1036SOL     OW 3163   0.617   1.839   0.702 -0.7330  0.5381 -0.6138
 1036SOL    HW1 3164   0.553   1.808   0.766 -0.4142  1.4426  0.1638
 1036SOL    HW2 3165   0.600   1.786   0.624  0.5432 -2.4205  0.9673
 1037SOL     OW 3166   1.097   2.368   1.919 -0.8866  0.4147  0.0697
 1037SOL    HW1 3167   1.039   2.292   1.921  0.2506 -0.4616 -0.0151
 1037SOL    HW2 3168   1.043   2.437   1.881 -2.0372 -0.2439  0.4538
 1038SOL     OW 3169   2.357   3.780   1.683 -0.9738  0.4146 -0.1373
 1038SOL    HW1 3170   2.450   3.794   1.699 -1.5476  1.2227  2.9766
 1038SOL    HW2 3171   2.338   3.831   1.604  1.7167 -2.1384 -2.6592
 1039SOL     OW 3172   3.073   4.056   1.942  0.5388 -0.5053 -0.0722
 1039SOL    HW1 3173   3.128   3.986   1.908  0.4579  0.4456 -2.2990
 1039SOL    HW2 3174   3.085   4.051   2.037  1.7594 -2.4911 -0.2633
 1040SOL     OW 3175   3.775   1.703   1.378  0.2694 -0.3917 -0.5591
 1040SOL    HW1 3176   3.738   1.792   1.380 -0.1623 -0.5838  0.0678
 1040SOL    HW2 3177   3.716   1.654   1.321  0.8112 -0.1518 -1.3478
 1041SOL     OW 3178   1.424   3.308   0.512  0.5355 -0.4153  0.1445
 1041SOL    HW1 3179   1.355   3.256   0.470 -1.1446  1.5847  0.3009
 1041SOL    HW2 3180   1.488   3.323   0.442 -0.9619  0.6959 -1.0543
 1042SOL     OW 3181   2.023   0.665   2.466 -0.5869  0.1432  0.2741
 1042SOL    HW1 3182   2.057   0.713   2.541 -0.4796  0.3903  0.0677
 1042SOL    HW2 3183   2.023   0.728   2.394 -0.3446 -0.1895 -0.0241
 1043SOL     OW 3184   2.450   0.833   3.761  0.0327 -0.2792  0.1783
 1043SOL    HW1 3185   2.395   0.761   3.731  0.7254 -0.9830  0.5414
 1043SOL    HW2 3186   2.485   0.803   3.845  1.7116 -0.2748 -0.4752
 1044SOL     OW 3187   1.891   2.951   2.485  0.1879 -0.4523 -0.6144
 1044SOL    HW1 3188   1.846   3.030   2.513  1.5728  0.0432  0.3293
 1044SOL    HW2 3189   1.974   2.952   2.533 -0.0268 -2.8159 -0.0683
 1045SOL     OW 3190   2.065   0.543   1.184  0.1856 -0.1602 -0.2203
 1045SOL    HW1 3191   2.095   0.453   1.174 -2.1515 -0.8226 -2.4078
 1045SOL    HW2 3192   1.974   0.535   1.211  0.0670  1.5531  0.0003
 1046SOL     OW 3193   0.220   4.763   3.137  0.5891 -0.0572 -0.1295
 1046SOL    HW1 3194   0.153   4.726   3.081  0.4938 -1.0804  0.6293
 1046SOL    HW2 3195   0.188   4.850   3.159 -0.2758 -0.3599 -0.1505
 1047SOL     OW 3196   0.105   2.397   3.287  0.0248 -0.3636  0.2916
 1047SOL    HW1 3197   0.148   2.378   3.203 -0.4696 -0.1556 -0.0122
 1047SOL    HW2 3198   0.164   2.361   3.353 -0.0173 -1.3357 -0.1862
 1048SOL     OW 3199   4.415   3.880   0.698 -0.1259 -0.3277 -0.0053
 1048SOL    HW1 3200   4.417   3.969   0.661  2.5603 -0.2272  0.1758
 1048SOL    HW2 3201   4.440   3.892   0.790  0.8139 -1.2975 -0.1182
 1049SOL     OW 3202   3.773   0.242   1.861 -0.1784  0.1914  0.0978
 1049SOL    HW1 3203   3.809   0.326   1.831  1.3780 -0.1767  0.8482
 1049SOL    HW2 3204   3.850   0.187   1.876 -1.0985 -0.8636  1.0935
 1050SOL     OW 3205   1.790   3.205   2.518 -0.4035 -0.2487 -0.3969
 1050SOL    HW1 3206   1.829   3.270   2.458 -0.2126  0.2122  0.2126
 1050SOL    HW2 3207   1.701   3.236   2.531 -0.0603  0.4081  0.5771
 1051SOL     OW 3208   3.285   4.389   4.264 -0.4205  0.0185  0.0056
 1051SOL    HW1 3209   3.299   4.315   4.205 -3.7637 -1.0705  0.3898
 1051SOL    HW2 3210   3.212   4.437   4.225  0.6758  2.3059  0.5911
 1052SOL     OW 3211   3.344   2.337   3.812  0.3688  0.2148 -0.0769
 1052SOL    HW1 3212   3.320   2.382   3.893 -2.3032  0.8539 -1.1167
 1052SOL    HW2 3213   3.295   2.383   3.744  2.4615 -0.3688 -2.0835
 1053SOL     OW 3214   1.990   4.931   0.401  0.1176  0.4176  0.0622
 1053SOL    HW1 3215   1.971   4.851   0.351 -0.0417  0.4398  0.0895
 1053SOL    HW2 3216   2.017   4.994   0.335  1.0521  0.0961  0.1195
 1054SOL     OW 3217   0.386   3.885   3.044 -0.2442  0.2502  0.5510
 1054SOL    HW1 3218   0.424   3.940   3.113  0.1289  0.0319  0.5208
 1054SOL    HW2 3219   0.399   3.935   2.964  3.3896 -1.3800 -0.0650
 1055SOL     OW 3220   2.113   3.126   1.602  0.2376 -0.2149  0.5802
 1055SOL    HW1 3221   2.152   3.213   1.606 -1.1602  0.5349 -0.8410
 1055SOL    HW2 3222   2.163   3.080   1.534 -0.7406  0.4558 -0.6351
 1056SOL     OW 3223   0.981   3.047   1.726 -0.0422  0.7550  0.2649
 1056SOL    HW1 3224   1.065   3.087   1.747  0.5683 -1.0803  1.4754
 1056SOL    HW2 3225   0.987   3.024   1.633  0.4837  1.2864  0.1622
 1057SOL     OW 3226   3.647   2.110   0.044 -0.5658 -0.2717 -0.1972
 1057SOL    HW1 3227   3.555   2.129   0.029 -1.0617 -0.1241  2.5067
 1057SOL    HW2 3228   3.648   2.022   0.081  0.4359 -0.4100 -0.5173
 1058SOL     OW 3229   0.101   4.813   2.738  0.2537  0.1415 -0.5165
 1058SOL    HW1 3230   0.130   4.786   2.825 -0.6293  0.6115 -0.0622
 1058SOL    HW2 3231   0.060   4.736   2.701  0.2746  0.0507 -0.3514
 1059SOL     OW 3232   4.300   4.885   2.625  0.8133  0.3541  0.0368
 1059SOL    HW1 3233   4.353   4.909   2.550  1.8108 -1.0149  0.2574
 1059SOL    HW2 3234   4.227   4.947   2.624  0.6784  0.2580 -2.1730
 1060SOL     OW 3235   4.778   0.642   3.829  0.0076  0.2337  0.3248
 1060SOL    HW1 3236   4.781   0.733   3.798  3.5218  0.1933  0.1882
 1060SOL    HW2 3237   4.738   0.594   3.757 -2.7023  1.6677  0.7222
 1061SOL     OW 3238   3.943   4.672   4.975  0.1879  0.1092  0.2059
 1061SOL    HW1 3239   3.892   4.753   4.983  0.1981  0.1760 -0.3244
 1061SOL    HW2 3240   3.933   4.647   4.883  0.1062 -0.5480  0.3893
 1062SOL     OW 3241   4.356   0.071   2.923  0.0902  0.2081 -0.3126
 1062SOL    HW1 3242   4.265   0.042   2.919  0.5516 -1.5661  0.7409
 1062SOL    HW2 3243   4.359   0.128   3.000  0.2494 -1.4441  0.9648
 1063SOL     OW 3244   0.787   3.236   1.720  0.0965  0.2634  0.4203
 1063SOL    HW1 3245   0.841   3.158   1.712  1.7947  1.4245 -0.0354
 1063SOL    HW2 3246   0.753   3.233   1.810  1.1492 -0.3725  0.8128
 1064SOL     OW 3247   2.130   0.626   1.447 -0.9048 -0.3740 -0.0009
 1064SOL    HW1 3248   2.110   0.714   1.416 -1.2632 -0.2773  0.4841
 1064SOL    HW2 3249   2.104   0.568   1.375  0.8755 -0.0027 -1.0047
 1065SOL     OW 3250   3.249   4.615   2.507 -0.1520  0.0337 -0.3983
 1065SOL    HW1 3251   3.235   4.606   2.601  1.1385  1.0555 -0.0772
 1065SOL    HW2 3252   3.163   4.599   2.469 -1.1192  1.3001  1.0887
 1066SOL     OW 3253   0.261   2.566   3.983 -0.3672 -0.1420 -0.3688
 1066SOL    HW1 3254   0.174   2.591   3.952 -0.0133 -0.7380 -1.9450
 1066SOL    HW2 3255   0.291   2.641   4.035 -2.0604 -0.1946  0.7518
 1067SOL     OW 3256   0.738   4.665   3.481 -0.3710  0.0734  0.1725
 1067SOL    HW1 3257   0.667   4.729   3.474 -0.2707  0.2015  0.3118
 1067SOL    HW2 3258   0.786   4.672   3.398 -0.7566 -0.2950 -0.0833
 1068SOL     OW 3259   0.326   0.735   4.934  0.1318 -0.9920 -0.5430
 1068SOL    HW1 3260   0.338   0.791   4.858  1.3699 -1.5343 -0.7856
 1068SOL    HW2 3261   0.260   0.672   4.908 -1.1785  0.2438 -0.3130
 1069SOL     OW 3262   3.629   2.416   3.443 -0.2825 -0.1495 -0.2600
 1069SOL    HW1 3263   3.601   2.473   3.514 -0.7235 -0.3667 -0.2587
 1069SOL    HW2 3264   3.616   2.468   3.364 -0.0666 -0.0129 -0.2057
 1070SOL     OW 3265   2.283   3.083   0.915  0.2017 -0.4820 -0.6198
 1070SOL    HW1 3266   2.231   3.108   0.839 -1.0643 -2.6624 -0.5388
 1070SOL    HW2 3267   2.320   3.166   0.946 -3.2695  1.2570 -0.6256
 1071SOL     OW 3268   3.757   0.196   4.149 -1.2594  0.1023 -0.4593
 1071SOL    HW1 3269   3.735   0.283   4.184  0.1830 -0.2799  1.4992
 1071SOL    HW2 3270   3.852   0.197   4.139 -0.6972 -2.4035  3.0990
 1072SOL     OW 3271   2.047   1.183   2.121 -0.3015 -0.7643 -0.3106
 1072SOL    HW1 3272   2.044   1.176   2.216 -0.3866 -2.3014 -0.3944
 1072SOL    HW2 3273   1.971   1.237   2.098 -0.7260 -1.0162  0.4554
 1073SOL     OW 3274   0.555   0.466   2.228 -0.4811  0.5961  0.1639
 1073SOL    HW1 3275   0.467   0.452   2.193 -0.6791  0.8043  0.5774
 1073SOL    HW2 3276   0.613   0.446   2.154 -0.8075 -0.7883  0.2544
 1074SOL     OW 3277   1.781   4.682   3.306  0.4365  0.0217 -0.0679
 1074SOL    HW1 3278   1.696   4.644   3.330 -0.8361  1.4820 -1.9560
 1074SOL    HW2 3279   1.831   4.683   3.388 -1.1668 -1.3620  0.9827
 1075SOL     OW 3280   0.995   1.229   1.325 -0.2152 -0.1158 -0.2726
 1075SOL    HW1 3281   1.051   1.159   1.290 -0.4886  1.0556 -3.4104
 1075SOL    HW2 3282   1.036   1.309   1.294 -2.1052  0.8999 -0.2747
 1076SOL     OW 3283   0.439   2.730   3.811  0.6364  0.2150  0.6168
 1076SOL    HW1 3284   0.513   2.719   3.752  0.3294  0.5596  0.1618
 1076SOL    HW2 3285   0.411   2.641   3.832  0.6897  0.0922  0.1739
 1077SOL     OW 3286   2.293   0.684   0.794  0.0455  0.1585 -0.0675
 1077SOL    HW1 3287   2.336   0.737   0.861  0.7555  1.8182 -1.7138
 1077SOL    HW2 3288   2.205   0.721   0.787  0.4971  1.0980 -1.1233
 1078SOL     OW 3289   0.082   0.464   2.154  0.0501 -0.8353 -0.0029
 1078SOL    HW1 3290   0.045   0.467   2.066 -0.9640  0.9838  0.4318
 1078SOL    HW2 3291   0.155   0.525   2.152 -1.9105  1.7187  1.1597
 1079SOL     OW 3292   2.831   1.009   2.216  0.1862 -0.4794 -0.1662
 1079SOL    HW1 3293   2.840   1.100   2.188 -0.1892 -0.8176 -1.4436
 1079SOL    HW2 3294   2.751   1.007   2.267 -0.5454 -0.3419 -1.2826
 1080SOL     OW 3295   2.576   2.323   1.898 -0.5470 -0.0721 -0.7815
 1080SOL    HW1 3296   2.518   2.313   1.822 -0.1909 -0.1555 -1.0450
 1080SOL    HW2 3297   2.664   2.331   1.860 -0.4924  1.1487 -0.4462
 1081SOL     OW 3298   0.046   0.310   1.156 -0.0999 -0.0337 -0.0942
 1081SOL    HW1 3299  -0.018   0.381   1.157  0.4240  0.4466  1.6950
 1081SOL    HW2 3300   0.100   0.328   1.079 -0.6831  0.8486 -0.3104
 1082SOL     OW 3301   0.334   0.284   0.449 -0.1435 -0.2771  0.3334
 1082SOL    HW1 3302   0.405   0.228   0.481  0.8544  0.6777 -0.1484
 1082SOL    HW2 3303   0.260   0.262   0.505  0.8675 -0.4262  1.6725
 1083SOL     OW 3304   4.268   2.727   2.735 -0.2350 -0.3146 -0.6022
 1083SOL    HW1 3305   4.205   2.788   2.697  0.5746  1.3161  0.5284
 1083SOL    HW2 3306   4.292   2.767   2.819 -0.8554 -3.0201  0.9889
 1084SOL     OW 3307   4.034   1.709   1.310  0.0792 -0.2027 -0.4057
 1084SOL    HW1 3308   3.942   1.685   1.300 -0.0857  0.2520 -0.0406
 1084SOL    HW2 3309   4.060   1.674   1.395  0.2275 -0.2814 -0.4828
 1085SOL     OW 3310   3.828   3.323   2.023 -0.2821 -0.5911 -0.1910
 1085SOL    HW1 3311   3.804   3.414   2.033 -1.6582 -0.6858 -2.0694
 1085SOL    HW2 3312   3.906   3.312   2.077  0.1239  1.7791 -0.2127
 1086SOL     OW 3313   0.724   4.337   2.019 -0.2572  0.1321 -0.1507
 1086SOL    HW1 3314   0.694   4.247   2.011 -1.1876  0.3477  0.7116
 1086SOL    HW2 3315   0.704   4.376   1.934 -0.3334 -0.3324 -0.3508
 1087SOL     OW 3316   4.515   3.388   1.029  0.4354 -0.5361  0.5380
 1087SOL    HW1 3317   4.522   3.395   1.124  1.5908  0.7644  0.3828
 1087SOL    HW2 3318   4.562   3.464   0.995  0.3540 -1.1633 -1.0894
 1088SOL     OW 3319   2.267   1.660   3.895  0.1162  0.5789  0.8212
 1088SOL    HW1 3320   2.313   1.652   3.978  0.9736  2.0479  0.5280
 1088SOL    HW2 3321   2.326   1.621   3.831  0.3830  1.3111  0.6188
 1089SOL     OW 3322   1.930   2.112   2.590 -0.5284  0.0182 -0.4867
 1089SOL    HW1 3323   2.024   2.110   2.605 -0.7943  1.7331  1.8841
 1089SOL    HW2 3324   1.917   2.057   2.513  2.2308 -1.4532 -0.0210
 1090SOL     OW 3325   3.627   4.186   2.897 -0.2996  0.4728  0.3205
 1090SOL    HW1 3326   3.535   4.167   2.917 -0.5743  1.2432 -0.1931
 1090SOL    HW2 3327   3.666   4.206   2.983 -0.3863 -0.7047  0.6591
 1091SOL     OW 3328   2.889   1.807   3.572  0.7776  0.6045 -0.7028
 1091SOL    HW1 3329   2.800   1.774   3.556  1.2201 -1.0505  0.0536
 1091SOL    HW2 3330   2.876   1.884   3.627 -0.2055  0.6733 -1.0007
 1092SOL     OW 3331   0.229   1.990   1.368 -0.1453  0.2845 -0.2361
 1092SOL    HW1 3332   0.300   1.960   1.311 -0.1603  1.0786 -0.6744
 1092SOL    HW2 3333   0.274   2.034   1.441 -0.1928  1.4109 -0.8673
 1093SOL     OW 3334   2.338   2.310   3.120 -0.1915 -0.2069  0.0741
 1093SOL    HW1 3335   2.243   2.319   3.121 -0.1916 -0.1241 -0.2922
 1093SOL    HW2 3336   2.366   2.368   3.049  0.1962  0.3672  0.6813
 1094SOL     OW 3337   4.122   1.719   0.672 -0.5288  0.1697  0.0906
 1094SOL    HW1 3338   4.197   1.778   0.665 -2.7663  3.3191  0.7282
 1094SOL    HW2 3339   4.088   1.714   0.582 -0.3613 -0.1046  0.0433
 1095SOL     OW 3340   1.294   4.867   3.948  0.0441 -0.0710 -0.8177
 1095SOL    HW1 3341   1.276   4.961   3.942 -0.4074 -0.1735 -1.0698
 1095SOL    HW2 3342   1.238   4.827   3.881 -1.0648 -0.7096  0.4593
 1096SOL     OW 3343   1.187   2.461   2.813  0.0677 -0.1705  0.2297
 1096SOL    HW1 3344   1.099   2.486   2.839  0.7262  0.5659  1.8997
 1096SOL    HW2 3345   1.176   2.379   2.764 -1.6935  0.9465 -1.3463
 1097SOL     OW 3346   3.668   4.669   1.347 -0.5119  0.3503 -0.5434
 1097SOL    HW1 3347   3.695   4.745   1.295  0.1708  1.1651  0.9582
 1097SOL    HW2 3348   3.744   4.648   1.401 -0.7738 -1.2708 -0.7520
 1098SOL     OW 3349   0.073   1.384   3.799 -0.3062 -0.6558 -0.5148
 1098SOL    HW1 3350   0.033   1.459   3.843  0.2164  0.7038 -2.2300
 1098SOL    HW2 3351   0.048   1.309   3.852 -0.5835  0.7546  1.4450
 1099SOL     OW 3352   1.041   1.692   4.880  0.3394 -0.0886  0.1692
 1099SOL    HW1 3353   1.113   1.711   4.940  0.6906  0.5746 -0.4552
 1099SOL    HW2 3354   0.985   1.769   4.885 -0.6548 -0.8291  1.0835
 1100SOL     OW 3355   3.869   2.036   2.705  0.3097  0.2974  0.0983
 1100SOL    HW1 3356   3.932   2.058   2.773 -0.3657 -0.4531  0.9999
 1100SOL    HW2 3357   3.783   2.055   2.744 -0.1767 -1.7013  0.1113
 1101SOL     OW 3358   2.736   0.489   4.598 -0.0597  0.2836  0.3348
 1101SOL    HW1 3359   2.719   0.521   4.509 -0.3995  0.8579  0.6024
 1101SOL    HW2 3360   2.831   0.500   4.609 -0.3217  2.3985  0.8562
 1102SOL     OW 3361   1.611   2.650   0.523 -0.6626  0.6957 -0.3543
 1102SOL    HW1 3362   1.672   2.648   0.597 -0.7344  1.2656 -0.2682
 1102SOL    HW2 3363   1.633   2.732   0.478  0.2752 -0.2732 -1.7380
 1103SOL     OW 3364   2.128   1.322   3.065  0.3479  0.4358  0.3805
 1103SOL    HW1 3365   2.103   1.399   3.116  3.2923  1.7617  0.0541
 1103SOL    HW2 3366   2.198   1.353   3.008  2.0438 -2.6013  0.6069
 1104SOL     OW 3367   1.799   2.010   0.200 -0.2651  0.2546  0.4062
 1104SOL    HW1 3368   1.772   2.086   0.251 -1.0683 -0.7946  1.5927
 1104SOL    HW2 3369   1.739   1.941   0.227  2.1755 -1.5880  1.4606
 1105SOL     OW 3370   0.737   4.624   2.202 -0.0814 -0.2720  0.2370
 1105SOL    HW1 3371   0.698   4.556   2.257  1.0369 -0.6146  0.6346
 1105SOL    HW2 3372   0.806   4.579   2.154 -0.9740  0.0397 -1.4175
 1106SOL     OW 3373   2.584   0.532   1.091  0.3138 -0.0926  0.3447
 1106SOL    HW1 3374   2.513   0.594   1.109 -0.2463 -0.9580  1.2270
 1106SOL    HW2 3375   2.615   0.556   1.004 -0.8621  0.5089  0.0646
 1107SOL     OW 3376   1.020   4.069   2.558  0.4603  0.3342 -0.3331
 1107SOL    HW1 3377   1.024   3.987   2.608 -2.0997 -0.9238 -1.9663
 1107SOL    HW2 3378   0.957   4.123   2.605  1.7732  1.2285  0.4634
 1108SOL     OW 3379   1.647   2.610   1.285  0.0430 -0.3417 -0.1882
 1108SOL    HW1 3380   1.674   2.561   1.207  0.2097  0.9524 -0.9694
 1108SOL    HW2 3381   1.725   2.659   1.311 -0.4746  0.5154 -0.2100
 1109SOL     OW 3382   3.221   1.120   2.520  0.4654  0.0069 -0.0896
 1109SOL    HW1 3383   3.158   1.192   2.527  1.9069  1.3306 -0.2245
 1109SOL    HW2 3384   3.212   1.073   2.602 -2.9636 -1.8592 -1.3049
 1110SOL     OW 3385   3.257   2.793   4.270  0.1549  0.2815  0.7356
 1110SOL    HW1 3386   3.334   2.756   4.313  0.0963 -0.3528  0.3018
 1110SOL    HW2 3387   3.188   2.789   4.337  0.1948 -0.2312  0.7480
 1111SOL     OW 3388   0.408   1.250   3.267  0.0509  0.0225 -0.0075
 1111SOL    HW1 3389   0.499   1.232   3.294  0.1370 -0.5592 -0.6642
 1111SOL    HW2 3390   0.417   1.316   3.198 -0.0263 -0.0166 -0.0542
 1112SOL     OW 3391   2.768   4.039   1.939 -0.1830  0.2662 -0.2748
 1112SOL    HW1 3392   2.846   4.017   1.989 -0.1341 -0.0119 -0.4725
 1112SOL    HW2 3393   2.698   3.988   1.979 -0.5498  1.5653  0.7981
 1113SOL     OW 3394   2.016   2.410   0.588  0.2620  1.0930  0.4349
 1113SOL    HW1 3395   2.054   2.325   0.569  1.0672  1.5421  0.0184
 1113SOL    HW2 3396   1.927   2.405   0.552  0.3843  0.5164  0.2084
 1114SOL     OW 3397   4.542   2.825   2.943  0.4693  0.2391 -0.3518
 1114SOL    HW1 3398   4.570   2.734   2.937  1.2892  0.3733  1.0221
 1114SOL    HW2 3399   4.449   2.821   2.964  0.6247 -0.2961  0.2551
 1115SOL     OW 3400   0.404   3.305   1.610 -0.5001 -0.6636 -0.1010
 1115SOL    HW1 3401   0.391   3.322   1.703 -2.9705  0.8041 -0.6394
 1115SOL    HW2 3402   0.402   3.209   1.603 -1.5184 -0.7651  1.2167
 1116SOL     OW 3403   4.195   2.614   3.410  0.2313 -0.1920 -0.6657
 1116SOL    HW1 3404   4.290   2.607   3.399  0.3462  0.4681 -0.1782
 1116SOL    HW2 3405   4.167   2.524   3.428  0.7133 -0.4477 -1.1562
 1117SOL     OW 3406   3.435   2.090   4.170 -0.1650 -0.4103 -0.4014
 1117SOL    HW1 3407   3.371   2.161   4.180  0.5901  0.1690  0.4754
 1117SOL    HW2 3408   3.519   2.135   4.164  0.2694 -1.2163 -0.4239
 1118SOL     OW 3409   3.712   4.201   3.158  0.2943  0.2443 -0.2371
 1118SOL    HW1 3410   3.781   4.186   3.223  0.3087  1.4352  0.0530
 1118SOL    HW2 3411   3.641   4.143   3.183  0.4707  0.3798  0.5817
 1119SOL     OW 3412   2.206   0.276   0.397  0.4445  0.3845  0.0135
 1119SOL    HW1 3413   2.180   0.331   0.471  0.7811  1.3055 -0.5432
 1119SOL    HW2 3414   2.209   0.187   0.433 -0.5303  0.6609  0.8183
 1120SOL     OW 3415   4.274   2.311   3.068 -0.2435  0.0373 -0.6356
 1120SOL    HW1 3416   4.354   2.259   3.070  0.8733  1.6395 -1.8256
 1120SOL    HW2 3417   4.220   2.274   3.138  0.7778 -2.2209 -0.9464
 1121SOL     OW 3418   0.923   1.695   1.299 -0.8641 -0.3790 -0.0511
 1121SOL    HW1 3419   0.868   1.664   1.372  1.1729 -1.8856  0.9627
 1121SOL    HW2 3420   0.898   1.787   1.288 -4.1373 -1.1731 -0.2578
 1122SOL     OW 3421   1.467   2.079   1.999 -0.0176 -0.5444  0.2265
 1122SOL    HW1 3422   1.378   2.106   1.978  0.6151  0.1911 -1.7874
 1122SOL    HW2 3423   1.478   1.994   1.957  0.4117 -0.3454 -0.0799
 1123SOL     OW 3424   2.625   4.629   4.215 -0.1892  0.0716 -0.1104
 1123SOL    HW1 3425   2.668   4.598   4.135  0.9227  0.5242  0.3008
 1123SOL    HW2 3426   2.533   4.607   4.201  0.2437 -1.5839 -0.7049
 1124SOL     OW 3427   1.790   1.409   0.156 -0.1494  0.6462  0.6888
 1124SOL    HW1 3428   1.780   1.388   0.063 -2.2693  1.2088  0.7428
 1124SOL    HW2 3429   1.803   1.324   0.199  0.2784  0.3312 -0.0474
 1125SOL     OW 3430   1.004   4.332   0.776 -0.0702  0.8428  0.4686
 1125SOL    HW1 3431   1.033   4.406   0.830 -1.2404  1.7165 -0.0385
 1125SOL    HW2 3432   0.947   4.282   0.833  0.3095  0.6200  0.6550
 1126SOL     OW 3433   4.033   1.621   3.958  0.2913 -0.1628 -0.2515
 1126SOL    HW1 3434   3.961   1.621   4.021 -2.3746  2.0623 -3.0294
 1126SOL    HW2 3435   4.108   1.651   4.009 -0.8627 -1.6620  2.5619
 1127SOL     OW 3436   3.476   4.587   3.158 -0.1297  0.2662  0.2014
 1127SOL    HW1 3437   3.452   4.516   3.217 -1.3760 -0.3507 -0.9883
 1127SOL    HW2 3438   3.396   4.638   3.146  0.2652  0.7695 -0.4212
 1128SOL     OW 3439   2.165   3.254   0.095  0.3586  0.0524  0.1858
 1128SOL    HW1 3440   2.128   3.204   0.023  2.8104  0.3345 -1.3812
 1128SOL    HW2 3441   2.150   3.345   0.072  2.5865  0.2087 -0.9158
 1129SOL     OW 3442   2.960   4.602   4.513 -0.0935 -0.0278 -0.4129
 1129SOL    HW1 3443   2.927   4.671   4.572  1.1775 -0.0175  0.3217
 1129SOL    HW2 3444   3.046   4.633   4.487 -0.8776  0.2884 -2.8676
 1130SOL     OW 3445   0.283   4.066   1.531 -0.0427  0.1803  0.0454
 1130SOL    HW1 3446   0.368   4.036   1.566  0.4277  1.0475 -0.3145
 1130SOL    HW2 3447   0.279   4.030   1.443  0.5881  1.2563 -0.4402
 1131SOL     OW 3448   0.805   2.534   2.217 -0.3382  0.5799  0.7656
 1131SOL    HW1 3449   0.750   2.462   2.248 -1.1447  0.1916 -1.3765
 1131SOL    HW2 3450   0.887   2.523   2.265 -0.3122 -1.9875  0.3079
 1132SOL     OW 3451   0.819   0.915   1.320 -0.1535  0.0390 -0.0850
 1132SOL    HW1 3452   0.726   0.941   1.321 -0.8936 -2.2699 -1.2837
 1132SOL    HW2 3453   0.832   0.881   1.231  1.5538 -0.6694  0.4147
 1133SOL     OW 3454   2.751   1.685   0.730  0.0096 -0.3063 -0.4488
 1133SOL    HW1 3455   2.793   1.771   0.736  0.3105 -0.4966  0.1780
 1133SOL    HW2 3456   2.693   1.693   0.654 -0.4073  0.6354 -0.0483
 1134SOL     OW 3457   2.916   0.955   2.789 -0.8771  0.3949  0.5730
 1134SOL    HW1 3458   2.875   1.018   2.729  0.9681 -0.1844 -1.4151
 1134SOL    HW2 3459   2.903   0.870   2.747  0.2480 -0.0573  1.1111
 1135SOL     OW 3460   4.298   4.631   4.189  0.2799  0.2151  0.2997
 1135SOL    HW1 3461   4.380   4.641   4.237  0.3421 -0.7278  0.4081
 1135SOL    HW2 3462   4.282   4.536   4.187 -1.1444  0.4162  0.8509
 1136SOL     OW 3463   1.697   1.386   1.004  0.4783  0.1578 -0.1185
 1136SOL    HW1 3464   1.669   1.424   0.921  0.0712 -0.1540 -0.1223
 1136SOL    HW2 3465   1.617   1.354   1.045  0.7878 -0.4823 -0.0044
 1137SOL     OW 3466   0.760   1.679   0.306  0.0246  0.0945 -0.2890
 1137SOL    HW1 3467   0.756   1.631   0.223  1.6901 -1.2276  0.3186
 1137SOL    HW2 3468   0.673   1.718   0.316 -0.4756 -0.3940 -2.2349
 1138SOL     OW 3469   3.845   2.289   3.591  0.0282  0.4248  0.2321
 1138SOL    HW1 3470   3.834   2.350   3.664  0.8787  0.3937  0.3901
 1138SOL    HW2 3471   3.777   2.223   3.605  0.2664  0.3451  1.0789
 1139SOL     OW 3472   2.921   0.297   3.962 -0.1783  0.6930  0.1869
 1139SOL    HW1 3473   2.886   0.376   3.921 -2.5372  0.1035  0.9378
 1139SOL    HW2 3474   2.859   0.228   3.940  0.3300 -0.3690  1.8317
 1140SOL     OW 3475   2.721   1.130   0.500 -0.1415 -0.0524  0.7827
 1140SOL    HW1 3476   2.643   1.106   0.450 -0.6234 -0.5963  1.7735
 1140SOL    HW2 3477   2.732   1.059   0.564  0.1837  0.8604  1.7653
 1141SOL     OW 3478   4.851   0.049   4.276  0.0230  0.7176  0.6965
 1141SOL    HW1 3479   4.859   0.091   4.362 -0.6963 -0.2806  1.2641
 1141SOL    HW2 3480   4.876  -0.042   4.291  1.4200  0.8683 -0.4904
 1142SOL     OW 3481   4.829   4.352   4.061  0.1657  0.0106 -0.5589
 1142SOL    HW1 3482   4.831   4.326   4.153  0.2994  0.6778 -0.3703
 1142SOL    HW2 3483   4.853   4.272   4.013  3.7514  0.4566  0.1519
 1143SOL     OW 3484   3.687   3.233   0.477 -0.3390  0.3615  0.6905
 1143SOL    HW1 3485   3.779   3.251   0.492  0.0448 -1.6919  1.0883
 1143SOL    HW2 3486   3.647   3.233   0.564 -0.6379  0.7990  0.5595
 1144SOL     OW 3487   4.007   2.366   4.894  0.5067  0.0162  0.3093
 1144SOL    HW1 3488   3.956   2.447   4.890  0.6043  0.1373  1.2988
 1144SOL    HW2 3489   4.090   2.387   4.850 -0.1120 -0.0617 -0.9377
 1145SOL     OW 3490   2.527   3.159   1.617 -0.1778 -0.2482  0.4988
 1145SOL    HW1 3491   2.542   3.065   1.608 -0.2465 -0.2793  0.6954
 1145SOL    HW2 3492   2.432   3.168   1.628 -0.1177 -0.2082  1.0421
 1146SOL     OW 3493   4.074   1.797   3.196  0.1607  0.2083 -0.0235
 1146SOL    HW1 3494   4.152   1.744   3.211  1.3977  2.1505  0.6568
 1146SOL    HW2 3495   4.061   1.794   3.101  0.1812 -1.2636 -0.0110
 1147SOL     OW 3496   3.795   2.223   1.948  0.0105 -0.0772 -0.3638
 1147SOL    HW1 3497   3.856   2.151   1.964 -0.0930  0.0244  0.5475
 1147SOL    HW2 3498   3.709   2.182   1.944 -0.2409  0.1208  1.6948
 1148SOL     OW 3499   1.539   4.739   0.595  0.0884 -0.0642 -0.1901
 1148SOL    HW1 3500   1.562   4.829   0.571  4.6144 -0.1514  2.5651
 1148SOL    HW2 3501   1.500   4.747   0.682 -0.4309 -0.7268 -0.3522
 1149SOL     OW 3502   1.260   2.174   1.846 -0.1423 -0.2187 -0.1818
 1149SOL    HW1 3503   1.271   2.204   1.756 -3.1267  0.9092 -0.2885
 1149SOL    HW2 3504   1.206   2.242   1.888  1.2089 -0.6548  2.5149
 1150SOL     OW 3505   2.155   4.181   2.161  0.2540  0.5071  0.2024
 1150SOL    HW1 3506   2.215   4.255   2.171 -1.0827  1.7145 -0.2642
 1150SOL    HW2 3507   2.149   4.167   2.066  0.0738  0.1670  0.2602
 1151SOL     OW 3508   3.557   1.651   1.256 -0.3013  0.2856 -0.2206
 1151SOL    HW1 3509   3.543   1.678   1.165 -2.4393  1.1700  0.3007
 1151SOL    HW2 3510   3.473   1.666   1.299 -0.6065 -3.7555  1.0495
 1152SOL     OW 3511   3.556   4.252   1.377  0.3701  0.0538 -0.1002
 1152SOL    HW1 3512   3.503   4.207   1.442  0.5179 -0.2979 -0.2155
 1152SOL    HW2 3513   3.513   4.336   1.363 -1.8238 -1.3082 -2.2802
 1153SOL     OW 3514   1.352   3.206   4.245 -0.1310  0.2393 -0.7390
 1153SOL    HW1 3515   1.374   3.299   4.250  0.7663  0.0471 -1.0018
 1153SOL    HW2 3516   1.368   3.172   4.333  1.4091 -0.0559 -1.1050
 1154SOL     OW 3517   2.610   0.941   3.507 -0.6469  0.4105 -0.4035
 1154SOL    HW1 3518   2.689   0.988   3.533 -0.0219 -1.3247  0.9766
 1154SOL    HW2 3519   2.549   0.955   3.580 -1.3569  1.0717 -1.0990
 1155SOL     OW 3520   3.615   4.457   0.101  0.3622  0.3168  0.1701
 1155SOL    HW1 3521   3.657   4.392   0.045 -1.7163 -1.4003  0.4671
 1155SOL    HW2 3522   3.575   4.519   0.040 -0.6859 -0.7412 -0.2532
 1156SOL     OW 3523   4.959   0.119   3.700 -0.2948 -0.5268  0.5267
 1156SOL    HW1 3524   4.944   0.032   3.662  0.4596 -0.9689  1.2170
 1156SOL    HW2 3525   4.879   0.137   3.751 -0.4308 -0.8367  0.4231
 1157SOL     OW 3526   4.181   3.951   2.626  0.1873  0.7843 -0.1415
 1157SOL    HW1 3527   4.190   3.998   2.709 -1.7683  0.5232  0.2766
 1157SOL    HW2 3528   4.206   3.861   2.648  0.6009  0.9108 -0.0816
 1158SOL     OW 3529   1.987   1.882   1.689  0.2373 -0.8011  0.5173
 1158SOL    HW1 3530   1.951   1.863   1.775  0.1666 -3.1645  0.0333
 1158SOL    HW2 3531   2.015   1.797   1.655  1.6107  0.2583 -1.2031
 1159SOL     OW 3532   1.103   0.965   2.509  0.0799 -0.2846 -0.0107
 1159SOL    HW1 3533   1.097   0.884   2.559  0.9242 -0.0557  0.4728
 1159SOL    HW2 3534   1.196   0.980   2.497  0.0131  1.2809  1.0372
 1160SOL     OW 3535   2.120   0.723   1.867 -0.1993 -0.3881 -0.9714
 1160SOL    HW1 3536   2.154   0.811   1.879  1.7238 -1.1211 -0.7292
 1160SOL    HW2 3537   2.195   0.672   1.837 -0.2092 -2.7614  2.4130
 1161SOL     OW 3538   3.521   1.478   4.894 -0.5529  0.3842  0.1456
 1161SOL    HW1 3539   3.426   1.462   4.894 -0.5862  0.5689 -0.3579
 1161SOL    HW2 3540   3.537   1.528   4.814  0.0713 -0.2422 -0.1388
 1162SOL     OW 3541   4.061   3.244   2.158  0.0010  0.0854  0.0412
 1162SOL    HW1 3542   4.156   3.236   2.144 -0.0642 -0.1639 -0.2653
 1162SOL    HW2 3543   4.038   3.169   2.212 -0.4399 -1.3466 -1.9963
 1163SOL     OW 3544   1.121   0.497   1.889  0.2621 -0.5332 -0.0306
 1163SOL    HW1 3545   1.064   0.549   1.946 -1.7809 -0.1538 -2.2400
 1163SOL    HW2 3546   1.191   0.557   1.864 -1.1280  0.6819 -1.1767
 1164SOL     OW 3547   2.107   1.335   1.414  0.0980 -0.1931 -0.3681
 1164SOL    HW1 3548   2.180   1.395   1.398 -0.9796  1.1820 -0.2836
 1164SOL    HW2 3549   2.109   1.275   1.340  0.9892  0.1435 -0.6388
 1165SOL     OW 3550   0.192   1.080   0.929 -0.6281 -0.3568 -0.3053
 1165SOL    HW1 3551   0.254   1.011   0.952  0.1376  0.1595 -0.7984
 1165SOL    HW2 3552   0.119   1.033   0.889  0.0288 -0.8595 -0.9401
 1166SOL     OW 3553   4.099   4.848   1.395  0.2338  0.2585  0.4231
 1166SOL    HW1 3554   4.192   4.822   1.394  0.7026  1.8008 -1.3659
 1166SOL    HW2 3555   4.060   4.796   1.325  0.1125  0.8166  0.0763
 1167SOL     OW 3556   4.418   4.906   4.579 -0.0869  0.3771  0.5384
 1167SOL    HW1 3557   4.511   4.920   4.593  0.0137  1.0413 -0.6786
 1167SOL    HW2 3558   4.406   4.914   4.485 -1.2601 -0.4257  0.5922
 1168SOL     OW 3559   3.523   3.152   4.546  0.5000 -0.1022 -0.5753
 1168SOL    HW1 3560   3.441   3.160   4.596  0.3712 -0.7103 -0.6808
 1168SOL    HW2 3561   3.508   3.077   4.488  1.8996 -1.6194  0.9202
 1169SOL     OW 3562   0.372   0.009   3.725 -0.4450 -0.4045 -0.2297
 1169SOL    HW1 3563   0.319   0.084   3.752  0.2814  0.1919 -0.4210
 1169SOL    HW2 3564   0.394   0.027   3.634 -0.6386 -1.0770 -0.4118
 1170SOL     OW 3565   3.262   3.853   4.991  0.1135  0.1879  0.7537
 1170SOL    HW1 3566   3.265   3.764   4.956 -0.5231  0.5235 -0.1995
 1170SOL    HW2 3567   3.325   3.902   4.937 -1.3196  0.8479 -0.3871
 1171SOL     OW 3568   2.261   2.789   4.005 -0.0469  0.0348 -0.6076
 1171SOL    HW1 3569   2.204   2.719   4.036 -1.2768  0.3116 -2.1366
 1171SOL    HW2 3570   2.344   2.745   3.983 -0.3283 -0.6939 -0.2449
 1172SOL     OW 3571   2.725   3.602   1.208  0.3812 -0.3231 -0.0134
 1172SOL    HW1 3572   2.763   3.522   1.246  3.0369  1.0124  0.3355
 1172SOL    HW2 3573   2.695   3.652   1.283  1.5928  0.3526  0.0466
 1173SOL     OW 3574   2.965   0.345   2.172  0.2349  0.5707  0.3785
 1173SOL    HW1 3575   3.028   0.321   2.240 -0.6025 -0.9310  0.6759
 1173SOL    HW2 3576   2.916   0.418   2.209  1.3217  1.2875  0.4281
 1174SOL     OW 3577   0.915   4.894   4.924  0.3159  0.3201  0.5350
 1174SOL    HW1 3578   0.926   4.800   4.916  0.9532  0.3703  0.7164
 1174SOL    HW2 3579   0.821   4.908   4.926  0.1297 -0.5988  3.4601
 1175SOL     OW 3580   3.155   2.454   3.649  0.7108 -0.4109 -0.6761
 1175SOL    HW1 3581   3.130   2.467   3.558  0.3395  1.4754 -0.3521
 1175SOL    HW2 3582   3.126   2.534   3.694 -0.1718 -1.7662  1.3273
 1176SOL     OW 3583   1.560   2.176   1.226 -0.4646  0.2434  0.0092
 1176SOL    HW1 3584   1.552   2.110   1.296  0.1167  0.3310  0.1634
 1176SOL    HW2 3585   1.653   2.194   1.222 -0.1037 -1.6424 -2.5371
 1177SOL     OW 3586   3.447   4.453   3.810  0.7191  0.4666  0.7353
 1177SOL    HW1 3587   3.440   4.459   3.906 -0.6453  0.7685  0.6363
 1177SOL    HW2 3588   3.463   4.543   3.782  2.5006  0.1811  0.7550
 1178SOL     OW 3589   3.613   3.396   4.471 -0.6026  0.8802 -0.0930
 1178SOL    HW1 3590   3.593   3.310   4.507 -1.3958  0.4300 -1.4904
 1178SOL    HW2 3591   3.536   3.449   4.492 -1.1020  0.5943 -1.1230
 1179SOL     OW 3592   2.352   4.795   4.220  0.1586  0.3774  0.1071
 1179SOL    HW1 3593   2.295   4.746   4.279  1.1809  0.3016  1.0569
 1179SOL    HW2 3594   2.321   4.771   4.132  0.7539 -2.1868  0.5078
 1180SOL     OW 3595   0.029   3.055   3.639 -0.2179 -0.2540 -0.3078
 1180SOL    HW1 3596   0.106   3.005   3.615 -1.0758 -1.2154 -1.1269
 1180SOL    HW2 3597   0.050   3.145   3.614  0.0967 -0.7376 -1.8758
 1181SOL     OW 3598   3.198   1.322   1.443 -0.4839  0.4513 -0.2882
 1181SOL    HW1 3599   3.219   1.243   1.391  0.7499  0.0848  0.7247
 1181SOL    HW2 3600   3.103   1.324   1.445 -0.5418 -0.7565 -0.7456
 1182SOL     OW 3601   4.959   1.180   4.239 -0.0263 -0.5519 -0.2861
 1182SOL    HW1 3602   4.920   1.224   4.314 -1.1449 -1.5763 -0.2293
 1182SOL    HW2 3603   5.012   1.110   4.278  0.6217 -0.1375 -0.4141
 1183SOL     OW 3604   0.527   3.741   4.548 -0.0689  0.6464 -0.1640
 1183SOL    HW1 3605   0.455   3.713   4.492 -0.2504  1.0813 -0.1539
 1183SOL    HW2 3606   0.555   3.825   4.511  1.7811 -0.4396 -1.4216
 1184SOL     OW 3607   1.892   4.880   1.910 -0.5465 -0.5802 -0.1234
 1184SOL    HW1 3608   1.864   4.810   1.851  1.1106 -0.3663 -1.2190
 1184SOL    HW2 3609   1.867   4.849   1.997 -2.1849 -1.3390 -0.8144
 1185SOL     OW 3610   0.110   2.901   4.194  0.4191  0.0946 -0.3104
 1185SOL    HW1 3611   0.092   2.928   4.284 -1.2740 -1.4303 -0.1325
 1185SOL    HW2 3612   0.203   2.878   4.194  1.1860  2.8567  0.2491
 1186SOL     OW 3613   3.713   3.036   2.396  0.4828 -0.0182  0.7517
 1186SOL    HW1 3614   3.619   3.018   2.392  0.4819 -0.5592  2.3325
 1186SOL    HW2 3615   3.720   3.110   2.457  0.8930  2.1636 -1.7587
 1187SOL     OW 3616   4.319   3.538   3.079 -0.0093  0.3194  0.4289
 1187SOL    HW1 3617   4.295   3.619   3.034  0.8532  0.7345  0.6985
 1187SOL    HW2 3618   4.403   3.557   3.120 -0.0355 -0.5537  0.9197
 1188SOL     OW 3619   1.251   3.009   3.296  0.1144  0.2155 -0.0135
 1188SOL    HW1 3620   1.210   2.983   3.213  0.7058  0.9567 -0.5556
 1188SOL    HW2 3621   1.345   3.001   3.280  0.2147 -0.8412  1.0109
 1189SOL     OW 3622   2.609   3.901   3.426 -0.1651 -0.0073 -0.3020
 1189SOL    HW1 3623   2.697   3.895   3.464 -0.1147  0.1303 -0.3961
 1189SOL    HW2 3624   2.578   3.811   3.422 -0.7880  0.0857  1.5113
 1190SOL     OW 3625   4.695   2.586   4.117  0.0076 -0.4180  0.0026
 1190SOL    HW1 3626   4.614   2.572   4.067 -1.5295  1.4625  1.8068
 1190SOL    HW2 3627   4.755   2.627   4.055 -0.0043 -2.6783 -1.6276
 1191SOL     OW 3628   2.629   0.276   0.001  0.0900 -0.2925  0.7938
 1191SOL    HW1 3629   2.573   0.260   0.077 -0.3272  1.4548  0.8890
 1191SOL    HW2 3630   2.568   0.296  -0.070  0.5008 -1.4057  0.0973
 1192SOL     OW 3631   4.223   0.224   2.368 -0.1195 -0.2704 -0.8064
 1192SOL    HW1 3632   4.187   0.312   2.360 -0.5292 -0.5178 -1.8289
 1192SOL    HW2 3633   4.204   0.182   2.284 -0.8137 -1.6573  0.0053
 1193SOL     OW 3634   3.988   0.635   2.556 -0.2512  0.6155  0.4488
 1193SOL    HW1 3635   3.981   0.577   2.632 -0.1284  1.4774  1.1316
 1193SOL    HW2 3636   3.900   0.637   2.518 -0.4521  0.6470  0.9165
 1194SOL     OW 3637   3.072   3.690   0.328 -0.2327 -0.0994 -0.2109
 1194SOL    HW1 3638   3.117   3.664   0.247 -1.0669 -0.8856 -0.4393
 1194SOL    HW2 3639   3.120   3.767   0.358  1.6555 -1.2177 -0.1355
 1195SOL     OW 3640   1.496   1.414   1.478 -0.0540 -0.2749 -0.7920
 1195SOL    HW1 3641   1.522   1.422   1.570 -1.5738 -1.7815 -0.1819
 1195SOL    HW2 3642   1.546   1.339   1.445 -1.9891 -1.9428 -0.1576
 1196SOL     OW 3643   2.164   2.314   4.816 -0.5957  0.2955  0.1450
 1196SOL    HW1 3644   2.079   2.357   4.827 -0.2872  0.7613  0.7986
 1196SOL    HW2 3645   2.171   2.298   4.722 -0.6415  1.8783 -0.1590
 1197SOL     OW 3646   1.032   4.098   1.155  0.2288 -0.1729 -0.1358
 1197SOL    HW1 3647   0.963   4.127   1.096  0.2494  0.7962  0.3115
 1197SOL    HW2 3648   1.084   4.037   1.102 -0.6301 -0.4783 -0.6441
 1198SOL     OW 3649   1.853   4.352   4.911  0.1036 -0.1225 -0.0659
 1198SOL    HW1 3650   1.933   4.337   4.862 -1.8239 -2.0367 -2.9158
 1198SOL    HW2 3651   1.805   4.270   4.905 -2.4718  1.2158  0.7117
 1199SOL     OW 3652   4.375   1.076   1.189 -0.1253  0.4183  0.1586
 1199SOL    HW1 3653   4.291   1.034   1.210  0.2558 -1.5020 -1.8492
 1199SOL    HW2 3654   4.375   1.156   1.241 -2.4171 -0.4044  1.5620
 1200SOL     OW 3655   0.373   0.859   0.991  0.2143 -0.2487 -0.1697
 1200SOL    HW1 3656   0.422   0.927   1.037  0.9007 -0.1672 -1.0122
 1200SOL    HW2 3657   0.433   0.785   0.986  0.0702 -0.3340 -0.7322
 1201SOL     OW 3658   3.778   0.319   1.112 -0.3813 -0.1217  0.2368
 1201SOL    HW1 3659   3.759   0.251   1.176 -0.6595  0.7193  1.0825
 1201SOL    HW2 3660   3.827   0.275   1.042  1.2034 -0.7970  1.7016
 1202SOL     OW 3661   2.630   1.663   2.551  0.2121 -0.3537 -0.4722
 1202SOL    HW1 3662   2.619   1.672   2.646 -0.6776 -0.1817 -0.5805
 1202SOL    HW2 3663   2.686   1.737   2.526  0.5417 -0.4643 -0.0700
 1203SOL     OW 3664   4.191   0.737   1.825 -0.2436  0.1571  0.4380
 1203SOL    HW1 3665   4.153   0.817   1.788  0.2183  0.1642 -0.0283
 1203SOL    HW2 3666   4.120   0.673   1.820 -0.0925  0.0598 -0.7822
 1204SOL     OW 3667   4.189   3.277   1.879 -0.5383  0.2269 -0.4871
 1204SOL    HW1 3668   4.153   3.312   1.961 -1.9992  1.8317 -1.7516
 1204SOL    HW2 3669   4.279   3.309   1.877 -0.7777  0.9659  0.0496
 1205SOL     OW 3670   2.821   0.079   3.585 -0.4712 -0.1042  0.4229
 1205SOL    HW1 3671   2.832   0.174   3.578  1.3077 -0.3659 -1.7911
 1205SOL    HW2 3672   2.727   0.064   3.574 -0.9098  1.4040  1.7334
 1206SOL     OW 3673   1.699   3.757   4.502  0.3754  0.1270  0.3725
 1206SOL    HW1 3674   1.640   3.788   4.570  0.2243  1.7996 -0.4588
 1206SOL    HW2 3675   1.660   3.789   4.420  0.7955 -1.4264 -0.4843
 1207SOL     OW 3676   4.589   3.703   2.195 -0.2326  0.1801 -0.1316
 1207SOL    HW1 3677   4.562   3.615   2.168  2.0867 -0.2039 -1.4367
 1207SOL    HW2 3678   4.613   3.693   2.287  0.9717 -0.8644 -0.5168
 1208SOL     OW 3679   0.771   0.471   2.023  0.3299  0.3372 -0.4770
 1208SOL    HW1 3680   0.751   0.549   1.971  0.7497 -0.2344 -1.5460
 1208SOL    HW2 3681   0.809   0.410   1.959  0.5936 -0.5013  0.4635
 1209SOL     OW 3682   1.522   1.947  -0.001  0.3463  0.2174  0.1205
 1209SOL    HW1 3683   1.610   1.909  -0.001  0.5225  0.6115 -0.1937
 1209SOL    HW2 3684   1.536   2.040   0.018  0.0512  0.3871 -0.4680
 1210SOL     OW 3685   1.568   4.383   1.758 -0.3179 -0.4214  0.1993
 1210SOL    HW1 3686   1.572   4.289   1.775 -2.3379 -0.9103 -1.6080
 1210SOL    HW2 3687   1.628   4.397   1.685 -1.0356 -0.5886 -0.4391
 1211SOL     OW 3688   3.301   3.482   2.461 -0.3175 -0.0371  0.2642
 1211SOL    HW1 3689   3.219   3.506   2.416 -2.3583 -0.7343  3.2665
 1211SOL    HW2 3690   3.331   3.564   2.500 -0.3606 -0.0302  0.2833
 1212SOL     OW 3691   3.831   3.035   3.285 -0.0267  0.2105  0.0267
 1212SOL    HW1 3692   3.829   3.119   3.332 -0.1958 -0.9441  2.1941
 1212SOL    HW2 3693   3.844   2.970   3.354  0.7500 -1.5094 -1.6819
 1213SOL     OW 3694   0.455   1.695   4.502  0.0044  0.8166  0.2268
 1213SOL    HW1 3695   0.449   1.601   4.518  0.1283  0.8945  0.7245
 1213SOL    HW2 3696   0.544   1.708   4.470  0.4426  0.9528  1.4547
 1214SOL     OW 3697   3.541   2.871   0.963 -0.4240 -0.1499  0.0386
 1214SOL    HW1 3698   3.612   2.808   0.981 -1.7677 -1.3963  1.1817
 1214SOL    HW2 3699   3.492   2.830   0.891 -1.0302 -0.1845  0.4701
 1215SOL     OW 3700   3.369   0.536   3.240 -0.1816 -0.3604  0.4313
 1215SOL    HW1 3701   3.300   0.473   3.220 -0.0701 -1.2097  2.5217
 1215SOL    HW2 3702   3.442   0.511   3.184 -1.6009  0.7852 -2.1065
 1216SOL     OW 3703   1.233   2.147   2.445  0.0852 -0.1004  0.6642
 1216SOL    HW1 3704   1.306   2.087   2.460 -0.2137 -0.2242  1.6977
 1216SOL    HW2 3705   1.272   2.224   2.404  0.6893 -0.4398  0.5954
 1217SOL     OW 3706   3.777   0.816   4.220 -0.4121  0.2068 -0.3936
 1217SOL    HW1 3707   3.741   0.873   4.153 -0.8690 -0.4903 -0.7550
 1217SOL    HW2 3708   3.747   0.728   4.196 -0.0176 -0.1431  0.3422
 1218SOL     OW 3709   4.291   4.065   3.072 -0.3045  0.5199  0.2225
 1218SOL    HW1 3710   4.311   4.146   3.118  1.2244  0.3433 -0.0860
 1218SOL    HW2 3711   4.279   4.000   3.142 -0.1370  0.7096  0.4261
 1219SOL     OW 3712   0.332   1.490   1.398  0.1702  0.1379  0.4357
 1219SOL    HW1 3713   0.394   1.549   1.442  0.5749  0.3000 -0.3321
 1219SOL    HW2 3714   0.350   1.502   1.305 -0.8605  0.0104  0.2044
 1220SOL     OW 3715   0.951   2.128   1.858 -0.2120  0.4794  0.3069
 1220SOL    HW1 3716   1.005   2.049   1.847  1.8969  1.7580  0.8459
 1220SOL    HW2 3717   0.918   2.147   1.770  1.1076  0.2441 -0.2617
 1221SOL     OW 3718   2.384   2.931   0.174 -0.9400 -0.0670 -0.1506
 1221SOL    HW1 3719   2.350   3.000   0.231  0.5958  1.1644 -0.6603
 1221SOL    HW2 3720   2.398   2.857   0.232 -2.5296  0.0510  0.4304
 1222SOL     OW 3721   4.283   1.016   3.766 -0.3996 -0.2455  0.2532
 1222SOL    HW1 3722   4.255   1.059   3.847 -1.5395  0.0416 -0.2709
 1222SOL    HW2 3723   4.358   1.067   3.737 -1.1241  0.8159  0.1710
 1223SOL     OW 3724   4.655   1.593   0.411 -1.1701  0.2894 -0.0782
 1223SOL    HW1 3725   4.650   1.608   0.505 -0.7124 -1.1532  0.1899
 1223SOL    HW2 3726   4.582   1.644   0.375 -1.9610  0.0541  1.1485
 1224SOL     OW 3727   3.392   1.989   0.593 -0.4036 -0.4859  0.2816
 1224SOL    HW1 3728   3.443   1.914   0.562  1.2526  0.4135  0.7039
 1224SOL    HW2 3729   3.400   1.987   0.688  2.5803  2.0368  0.2582
 1225SOL     OW 3730   4.196   0.048   3.399 -0.4904  0.1852  0.4564
 1225SOL    HW1 3731   4.154  -0.035   3.425  0.7204 -0.2624  1.0699
 1225SOL    HW2 3732   4.149   0.075   3.321 -1.5513 -0.5780  0.8070
 1226SOL     OW 3733   1.696   2.749   3.820 -0.0575 -0.5861 -0.4864
 1226SOL    HW1 3734   1.622   2.706   3.863  0.1295 -2.1888 -1.6723
 1226SOL    HW2 3735   1.747   2.787   3.892 -1.4304 -0.4057  0.4313
 1227SOL     OW 3736   1.581   1.543   0.243  0.3912 -0.0530 -0.1167
 1227SOL    HW1 3737   1.513   1.525   0.178 -1.0387 -0.7539  1.5044
 1227SOL    HW2 3738   1.663   1.514   0.201 -0.5118 -0.7541 -1.4721
 1228SOL     OW 3739   4.386   2.514   0.065 -0.1049 -0.3324  0.0685
 1228SOL    HW1 3740   4.331   2.497   0.142  0.7123  3.8854  1.8900
 1228SOL    HW2 3741   4.335   2.575   0.012  0.2101 -1.5777 -1.7680
 1229SOL     OW 3742   1.678   2.360   1.873 -0.7486 -0.3458 -0.0044
 1229SOL    HW1 3743   1.736   2.341   1.947 -0.8357  1.4649  0.5691
 1229SOL    HW2 3744   1.592   2.376   1.913 -1.5786 -2.4684 -0.8007
 1230SOL     OW 3745   1.276   2.341   3.820  0.1564 -0.0385 -0.1427
 1230SOL    HW1 3746   1.219   2.277   3.777  2.2579 -1.3865 -1.0637
 1230SOL    HW2 3747   1.307   2.397   3.748 -1.0726  1.6300  0.5517
 1231SOL     OW 3748   1.423   4.696   1.827  0.1083  0.0376  0.1100
 1231SOL    HW1 3749   1.478   4.692   1.748 -0.8774 -1.4843 -0.5466
 1231SOL    HW2 3750   1.427   4.607   1.863 -1.3985  0.0679  0.4009
 1232SOL     OW 3751   1.360   1.584   3.116 -0.0558  0.2432  0.0041
 1232SOL    HW1 3752   1.445   1.542   3.127  0.3763  1.5279  2.4166
 1232SOL    HW2 3753   1.296   1.515   3.133  0.5225 -0.4161 -0.4407
 1233SOL     OW 3754   3.285   4.704   4.811 -0.1246 -0.3089 -0.3479
 1233SOL    HW1 3755   3.272   4.798   4.802 -0.3287 -0.2522  0.4513
 1233SOL    HW2 3756   3.201   4.666   4.785 -0.6402 -0.1601  1.0113
 1234SOL     OW 3757   4.140   4.036   0.842 -0.0350  0.5085 -0.3131
 1234SOL    HW1 3758   4.101   4.101   0.900  0.4920 -0.3760  1.0949
 1234SOL    HW2 3759   4.225   4.016   0.882 -0.4340 -1.4795 -0.3253
 1235SOL     OW 3760   2.511   3.251   3.053 -0.5232  0.7211  0.4716
 1235SOL    HW1 3761   2.597   3.215   3.075 -0.8542 -0.4678 -0.0615
 1235SOL    HW2 3762   2.520   3.282   2.963 -0.9237 -0.3902  0.0321
 1236SOL     OW 3763   2.128   1.814   4.851 -0.0449 -0.6455  0.3405
 1236SOL    HW1 3764   2.178   1.879   4.901  0.2986 -1.7549  1.4577
 1236SOL    HW2 3765   2.154   1.830   4.760  0.8520  0.0880  0.7063
 1237SOL     OW 3766   3.967   2.122   3.881 -0.2595 -0.1555 -0.3440
 1237SOL    HW1 3767   3.901   2.107   3.948  0.1422 -0.1343  0.0628
 1237SOL    HW2 3768   3.937   2.071   3.805 -0.4274 -0.6402  0.0424
 1238SOL     OW 3769   0.658   3.555   2.712  0.7914  0.0395 -0.1366
 1238SOL    HW1 3770   0.629   3.600   2.791  1.6436 -1.0754  0.8631
 1238SOL    HW2 3771   0.606   3.475   2.709  0.6895  0.1258 -0.7658
 1239SOL     OW 3772   3.334   1.090   0.321  0.0008  0.7407  0.3980
 1239SOL    HW1 3773   3.429   1.083   0.317 -0.0125 -1.8196  2.2688
 1239SOL    HW2 3774   3.303   1.035   0.249 -0.0659  0.2205  0.8239
 1240SOL     OW 3775   3.466   1.431   4.336  0.3098 -0.0266 -0.4469
 1240SOL    HW1 3776   3.510   1.402   4.416  0.8974  0.4965 -0.5641
 1240SOL    HW2 3777   3.489   1.524   4.329 -2.4341  0.8246  0.5352
 1241SOL     OW 3778   1.342   3.343   0.773 -0.1073 -0.2829  0.2376
 1241SOL    HW1 3779   1.366   3.314   0.685 -0.2739 -0.2663  0.1866
 1241SOL    HW2 3780   1.301   3.266   0.814  1.0765 -0.6767  0.7343
 1242SOL     OW 3781   0.410   1.819   1.933  0.4211  0.3453  0.4005
 1242SOL    HW1 3782   0.451   1.745   1.888  1.3548 -0.1629  1.9912
 1242SOL    HW2 3783   0.455   1.896   1.899 -0.1304  0.1534 -0.8140
 1243SOL     OW 3784   3.422   0.308   2.170 -0.4388 -0.0771 -0.1281
 1243SOL    HW1 3785   3.442   0.340   2.083 -1.6060  1.1910  0.0190
 1243SOL    HW2 3786   3.415   0.213   2.161 -2.5488  0.1705 -1.8953
 1244SOL     OW 3787   1.470   1.099   1.238  0.3723  0.4710  0.2351
 1244SOL    HW1 3788   1.524   1.098   1.159  0.5725 -1.5792  0.3357
 1244SOL    HW2 3789   1.509   1.166   1.294 -0.7865  3.2537 -2.0144
 1245SOL     OW 3790   4.238   0.531   4.895 -0.2979  0.1510 -0.7591
 1245SOL    HW1 3791   4.199   0.589   4.830 -0.9039 -0.2425 -0.7597
 1245SOL    HW2 3792   4.163   0.498   4.945 -0.0779 -1.3746 -1.3835
 1246SOL     OW 3793   2.359   1.379   2.547  0.1548 -0.2180  0.5648
 1246SOL    HW1 3794   2.428   1.443   2.562 -1.6845  2.2477 -0.8227
 1246SOL    HW2 3795   2.278   1.425   2.566 -1.2841 -2.1275 -0.5378
 1247SOL     OW 3796   3.850   1.040   0.710 -0.4492  0.3940 -0.5430
 1247SOL    HW1 3797   3.788   1.113   0.711 -0.1317  0.6867 -1.4705
 1247SOL    HW2 3798   3.923   1.069   0.765 -0.1252  0.9670 -1.2586
 1248SOL     OW 3799   1.180   2.725   1.266  0.5466 -0.4440 -0.0941
 1248SOL    HW1 3800   1.265   2.714   1.224  0.0882  0.8724 -1.4733
 1248SOL    HW2 3801   1.200   2.736   1.359  2.0955  1.7973 -0.6210
 1249SOL     OW 3802   0.691   3.051   3.216 -0.1308 -0.2405  0.1443
 1249SOL    HW1 3803   0.632   3.117   3.179 -0.1287 -1.3397 -2.0049
 1249SOL    HW2 3804   0.778   3.080   3.190 -0.0245 -0.4268  0.2914
 1250SOL     OW 3805   4.005   1.312   1.691  0.0461 -0.5979 -0.0180
 1250SOL    HW1 3806   4.012   1.234   1.747  2.0463 -0.0562  0.5951
 1250SOL    HW2 3807   4.000   1.385   1.753  1.8765 -0.0139 -0.4837
 1251SOL     OW 3808   4.384   0.083   0.722 -0.2649 -0.2791  0.2274
 1251SOL    HW1 3809   4.295   0.118   0.717 -0.2293  0.1086  1.7277
 1251SOL    HW2 3810   4.440   0.155   0.694 -0.2930  0.3547  1.7243
 1252SOL     OW 3811   0.807   3.597   3.508 -0.5029  0.5410  0.0377
 1252SOL    HW1 3812   0.786   3.689   3.523  0.9486  1.0178 -0.6880
 1252SOL    HW2 3813   0.722   3.554   3.499 -1.2103  1.7339  0.7607
 1253SOL     OW 3814   4.303   1.940   3.423  0.3079  0.4582  0.1413
 1253SOL    HW1 3815   4.326   2.033   3.426  0.5068  0.3968  0.9963
 1253SOL    HW2 3816   4.373   1.899   3.371  1.5345  0.4633  1.6798
 1254SOL     OW 3817   2.581   4.823   3.214  0.1626 -0.2943 -0.4515
 1254SOL    HW1 3818   2.506   4.881   3.199  0.3185 -0.2524 -1.0569
 1254SOL    HW2 3819   2.541   4.739   3.238 -0.1095  0.6500  3.0638
 1255SOL     OW 3820   1.414   4.375   0.449 -0.4675 -0.1028 -0.5551
 1255SOL    HW1 3821   1.455   4.349   0.367 -0.6688 -0.8817 -0.4202
 1255SOL    HW2 3822   1.485   4.414   0.500 -0.1495 -0.3939 -0.7670
 1256SOL     OW 3823   0.361   2.961   2.496 -0.2391  0.1749  0.1508
 1256SOL    HW1 3824   0.444   2.984   2.537 -1.0121  0.8822  1.3780
 1256SOL    HW2 3825   0.301   2.945   2.569 -1.1095 -0.6558 -0.7046
 1257SOL     OW 3826   1.772   0.825   1.155  0.5959 -0.0572  0.8700
 1257SOL    HW1 3827   1.706   0.770   1.197  1.5989 -1.5677  0.5449
 1257SOL    HW2 3828   1.851   0.770   1.151  1.0777  0.6758 -1.2690
 1258SOL     OW 3829   3.111   0.519   0.234  0.6511  0.2719  0.3112
 1258SOL    HW1 3830   3.152   0.446   0.279 -1.1980 -1.8052 -1.1325
 1258SOL    HW2 3831   3.032   0.537   0.286 -0.8814 -1.3684 -1.3245
 1259SOL     OW 3832   0.833   3.402   2.016  0.2605 -0.5474 -0.6618
 1259SOL    HW1 3833   0.907   3.445   1.974 -0.5908 -0.3914 -2.0591
 1259SOL    HW2 3834   0.758   3.459   1.999 -0.0456 -0.1951  1.5666
 1260SOL     OW 3835   4.675   4.499   4.851  0.2173  0.3976  0.6505
 1260SOL    HW1 3836   4.595   4.544   4.825  0.4540  0.6287  0.3035
 1260SOL    HW2 3837   4.683   4.427   4.789  0.2550  0.3517  0.7090
 1261SOL     OW 3838   0.676   3.687   2.467 -0.3121 -0.1319  0.0015
 1261SOL    HW1 3839   0.672   3.606   2.416 -0.8139  1.0747 -1.9746
 1261SOL    HW2 3840   0.635   3.665   2.551 -1.5120 -1.6047 -0.9269
 1262SOL     OW 3841   2.875   0.358   3.592 -0.0866 -0.3745  0.3709
 1262SOL    HW1 3842   2.873   0.409   3.674 -2.5581 -0.3787  0.3835
 1262SOL    HW2 3843   2.923   0.414   3.531 -1.7626  1.5394  0.7009
 1263SOL     OW 3844   3.400   4.757   2.782 -0.2586  0.1691 -0.1443
 1263SOL    HW1 3845   3.343   4.681   2.796  0.8045 -0.8863 -1.2761
 1263SOL    HW2 3846   3.342   4.825   2.749 -1.3245  0.0447  1.3885
 1264SOL     OW 3847   3.224   2.337   0.914 -0.1142  0.5729  0.1109
 1264SOL    HW1 3848   3.318   2.326   0.921 -0.2972 -1.4430 -0.0829
 1264SOL    HW2 3849   3.199   2.380   0.996  0.7987 -0.2125  0.8237
 1265SOL     OW 3850   0.186   0.360   3.498 -0.4054 -0.3010  0.0408
 1265SOL    HW1 3851   0.204   0.387   3.408 -1.1100  1.0699  0.2945
 1265SOL    HW2 3852   0.216   0.269   3.501  0.2202 -0.1796 -1.3915
 1266SOL     OW 3853   0.440   3.700   0.251 -0.0036  0.1143 -0.5139
 1266SOL    HW1 3854   0.508   3.767   0.249  1.2781 -1.1444 -2.1668
 1266SOL    HW2 3855   0.467   3.641   0.322  0.8211 -0.5063 -1.3090
 1267SOL     OW 3856   0.739   1.494   0.559  0.2771 -0.0408  0.0505
 1267SOL    HW1 3857   0.777   1.469   0.475 -1.5486 -0.4656 -0.6813
 1267SOL    HW2 3858   0.679   1.566   0.538  0.0255  0.0521  1.0334
 1268SOL     OW 3859   3.785   3.967   3.425  0.4402 -0.0112  0.4101
 1268SOL    HW1 3860   3.870   4.012   3.420  0.5059 -0.1879 -0.2219
 1268SOL    HW2 3861   3.800   3.883   3.381  0.0427 -0.2186  0.6601
 1269SOL     OW 3862   0.789   3.595   4.579 -0.3967  0.3292  0.2969
 1269SOL    HW1 3863   0.701   3.632   4.569 -0.2133  1.2210  1.6755
 1269SOL    HW2 3864   0.848   3.668   4.559  0.0163 -0.0226  0.2212
 1270SOL     OW 3865   2.671   2.961   2.598  0.5162 -0.0877  0.6615
 1270SOL    HW1 3866   2.744   2.940   2.656  1.2777  1.5611  0.3541
 1270SOL    HW2 3867   2.616   3.022   2.648 -0.0677 -0.4592  0.4869
 1271SOL     OW 3868   2.727   2.901   2.117  0.2678  0.0042 -0.1445
 1271SOL    HW1 3869   2.669   2.939   2.050  0.5518 -0.7405 -0.8265
 1271SOL    HW2 3870   2.794   2.855   2.067 -0.1178 -1.4695  0.6552
 1272SOL     OW 3871   0.723   1.538   4.640  0.3127  0.2368  0.4029
 1272SOL    HW1 3872   0.779   1.491   4.702 -0.5232  0.5150  1.3970
 1272SOL    HW2 3873   0.633   1.516   4.667 -0.1169 -0.7693 -1.5722
 1273SOL     OW 3874   4.567   1.754   0.060  0.5473  0.0148  0.0756
 1273SOL    HW1 3875   4.662   1.761   0.062  0.6133  0.5183 -2.1423
 1273SOL    HW2 3876   4.538   1.788   0.145  2.2821  0.7496  0.4028
 1274SOL     OW 3877   2.582   0.407   2.167 -0.9233  0.2140  0.7205
 1274SOL    HW1 3878   2.532   0.419   2.248 -1.1332  1.1309  0.4616
 1274SOL    HW2 3879   2.667   0.448   2.185 -1.7485  2.5153 -0.2717
 1275SOL     OW 3880   4.716   2.942   3.168 -0.1490  0.6290  0.1191
 1275SOL    HW1 3881   4.704   2.884   3.094 -0.0066  1.6260 -0.7097
 1275SOL    HW2 3882   4.796   2.992   3.147 -0.4433  1.3451  0.6470
 1276SOL     OW 3883   2.617   0.988   2.028 -0.3661 -0.5892 -0.3997
 1276SOL    HW1 3884   2.629   0.905   1.982  0.1072 -0.8328  0.1434
 1276SOL    HW2 3885   2.693   0.994   2.087 -1.5169 -0.8573  1.1780
 1277SOL     OW 3886   3.959   3.595   0.244 -0.2599  0.1823 -0.6786
 1277SOL    HW1 3887   3.962   3.688   0.223  1.4093  0.2524 -0.2196
 1277SOL    HW2 3888   3.995   3.589   0.332 -2.5726 -0.6616  0.2832
 1278SOL     OW 3889   1.270   4.025   3.473  0.4170 -0.4916  0.7475
 1278SOL    HW1 3890   1.234   3.962   3.535  1.5574 -0.0467  1.9104
 1278SOL    HW2 3891   1.348   4.059   3.517 -0.5974  2.3625  0.5455
 1279SOL     OW 3892  -0.002   0.579   4.513 -0.3483  0.8304  0.2933
 1279SOL    HW1 3893  -0.032   0.557   4.601 -1.0758 -0.1122 -0.1795
 1279SOL    HW2 3894   0.089   0.550   4.511 -0.8564 -0.8625  0.1652
 1280SOL     OW 3895   3.028   0.415   3.076 -0.7480  0.5036  0.0879
 1280SOL    HW1 3896   2.952   0.459   3.114 -2.3099 -1.2683 -0.8104
 1280SOL    HW2 3897   2.993   0.333   3.040  1.7616 -0.8659  0.5046
 1281SOL     OW 3898   4.889   4.758   4.300 -0.3039  0.2024  0.4821
 1281SOL    HW1 3899   4.975   4.717   4.305  0.0031  0.7566 -0.0873
 1281SOL    HW2 3900   4.866   4.754   4.207  0.5116  2.8099  0.0720
 1282SOL     OW 3901   3.231   3.088   3.135 -0.1119  0.0644  0.2415
 1282SOL    HW1 3902   3.157   3.027   3.138 -0.8202  0.9475  1.7894
 1282SOL    HW2 3903   3.219   3.135   3.053 -1.1071 -0.0145  0.3204
 1283SOL     OW 3904   2.747   4.115   4.897  0.6941 -0.8145 -0.4617
 1283SOL    HW1 3905   2.676   4.054   4.877  0.9157 -1.5555  0.9234
 1283SOL    HW2 3906   2.720   4.157   4.978 -0.5938  2.7515 -2.4907
 1284SOL     OW 3907   1.117   3.832   3.582 -0.6555 -0.1499  1.3720
 1284SOL    HW1 3908   1.023   3.842   3.565 -0.5501  0.1261  0.9522
 1284SOL    HW2 3909   1.130   3.737   3.585 -0.4246 -0.2870 -1.5871
 1285SOL     OW 3910   1.352   1.796   3.418  0.6645 -0.1160  0.1236
 1285SOL    HW1 3911   1.357   1.810   3.323 -2.7370  0.0362 -0.1637
 1285SOL    HW2 3912   1.343   1.884   3.455 -0.5083 -0.2939  0.3032
 1286SOL     OW 3913   4.549   2.795   1.427 -0.2040  0.0754  0.2573
 1286SOL    HW1 3914   4.479   2.825   1.370  0.3934  1.1590  0.0670
 1286SOL    HW2 3915   4.614   2.756   1.367  0.4228  1.2133  0.1697
 1287SOL     OW 3916   3.246   1.663   2.510  0.2350 -0.1979 -0.8768
 1287SOL    HW1 3917   3.336   1.632   2.504  0.0352 -1.6779  1.8526
 1287SOL    HW2 3918   3.253   1.758   2.515  1.7017 -0.3173 -0.2561
 1288SOL     OW 3919   0.968   3.047   2.005  0.0941  0.2804 -0.0036
 1288SOL    HW1 3920   0.873   3.052   2.015 -0.0226 -2.3076  0.7075
 1288SOL    HW2 3921   0.982   3.042   1.910 -0.3572  1.6263 -0.1715
 1289SOL     OW 3922   0.551   0.703   3.173 -0.4237  0.1892  0.3450
 1289SOL    HW1 3923   0.582   0.682   3.085 -1.5067  1.0523 -0.2694
 1289SOL    HW2 3924   0.630   0.710   3.226  0.2113 -0.9331 -0.4112
 1290SOL     OW 3925   3.260   1.393   4.770  0.0542  0.3183  0.5054
 1290SOL    HW1 3926   3.209   1.338   4.710  0.2589  0.5605  0.1014
 1290SOL    HW2 3927   3.268   1.477   4.724  1.3657  0.0838  0.2661
 1291SOL     OW 3928   0.644   0.651   2.407 -0.4034  0.7163 -0.3859
 1291SOL    HW1 3929   0.639   0.590   2.333 -1.6235 -0.6822  0.8012
 1291SOL    HW2 3930   0.570   0.710   2.394 -1.2057 -0.1376  0.2117
 1292SOL     OW 3931   3.782   0.469   4.239  0.0242  0.4329  0.0792
 1292SOL    HW1 3932   3.756   0.502   4.153  1.0880 -0.7720 -0.7536
 1292SOL    HW2 3933   3.700   0.444   4.281 -0.4323 -0.2513 -1.1593
 1293SOL     OW 3934   0.595   1.000   1.086  0.0900  0.6709 -0.0547
 1293SOL    HW1 3935   0.621   1.078   1.136  1.3838 -0.4378  1.0898
 1293SOL    HW2 3936   0.678   0.955   1.069 -0.7602 -1.2336  0.6554
 1294SOL     OW 3937   2.310   4.728   3.033  0.7945  0.4854 -0.0907
 1294SOL    HW1 3938   2.237   4.704   2.976  1.1545  0.5740 -0.5995
 1294SOL    HW2 3939   2.360   4.646   3.042  0.4749  0.3552  0.4905
 1295SOL     OW 3940   1.938   4.742   0.241 -0.3092  0.2394  0.5495
 1295SOL    HW1 3941   2.010   4.773   0.186  0.5506 -0.9168  0.9802
 1295SOL    HW2 3942   1.895   4.674   0.188  1.4442 -1.9620  1.7691
 1296SOL     OW 3943   2.993   4.849   1.699 -0.0517  0.2652 -0.0958
 1296SOL    HW1 3944   2.942   4.929   1.713 -0.1959  0.1161  0.2291
 1296SOL    HW2 3945   2.966   4.818   1.613 -0.3894  0.2723  0.0080
 1297SOL     OW 3946   2.866   3.080   0.419 -0.1002  0.4617  0.1856
 1297SOL    HW1 3947   2.811   3.159   0.421  0.0787  0.5838  0.3240
 1297SOL    HW2 3948   2.815   3.016   0.370  1.9402  2.2674 -4.8915
 1298SOL     OW 3949   4.615   0.481   4.126  0.0522  0.4169 -0.0962
 1298SOL    HW1 3950   4.663   0.522   4.054  0.9783 -1.9006 -0.8945
 1298SOL    HW2 3951   4.682   0.452   4.187 -0.3695 -1.5759 -0.5134
 1299SOL     OW 3952   3.707   2.049   3.090  0.0806 -0.0571  0.0682
 1299SOL    HW1 3953   3.721   2.096   3.172 -1.9180  0.4298  0.1714
 1299SOL    HW2 3954   3.736   2.110   3.022 -0.9693  0.7141  0.2877
 1300SOL     OW 3955   2.177   0.757   4.774  0.2254  0.4067 -0.3195
 1300SOL    HW1 3956   2.162   0.807   4.855  0.5575 -0.5885  0.3657
 1300SOL    HW2 3957   2.091   0.719   4.754  0.1912  0.4884 -0.3309
 1301SOL     OW 3958   3.590   4.142   4.177  0.0293  0.2359  0.1707
 1301SOL    HW1 3959   3.496   4.145   4.158  0.0556 -0.6785 -0.1260
 1301SOL    HW2 3960   3.632   4.144   4.091  0.3929  2.9185  0.3124
 1302SOL     OW 3961   2.104   0.248   1.150  0.1628 -0.5299 -0.0021
 1302SOL    HW1 3962   2.106   0.182   1.081 -1.9124 -1.0277  0.3390
 1302SOL    HW2 3963   2.168   0.219   1.214  1.2800 -0.6888 -1.1564
 1303SOL     OW 3964   3.655   4.929   1.516 -0.2462 -0.4483  0.1245
 1303SOL    HW1 3965   3.621   4.878   1.589  0.8388 -0.4065  0.6699
 1303SOL    HW2 3966   3.739   4.889   1.495  0.1249  0.4396 -0.1352
 1304SOL     OW 3967   2.203   4.022   3.279  0.2033  0.1579 -0.1580
 1304SOL    HW1 3968   2.261   4.058   3.212 -2.1419  2.1280 -1.2586
 1304SOL    HW2 3969   2.160   4.099   3.317 -0.8321 -1.1429  1.4390
 1305SOL     OW 3970   1.606   0.920   1.556  0.1043 -0.4238 -0.5523
 1305SOL    HW1 3971   1.696   0.944   1.536  0.3148 -1.0025 -0.3122
 1305SOL    HW2 3972   1.613   0.850   1.621 -0.5302  0.0097 -0.0044
 1306SOL     OW 3973   2.614   4.059   3.818 -0.1045 -0.1000  0.1567
 1306SOL    HW1 3974   2.576   4.142   3.790  1.8423  0.7009 -0.3202
 1306SOL    HW2 3975   2.655   4.024   3.739  0.5565 -0.6511  0.7293
 1307SOL     OW 3976   3.980   4.293   3.976 -0.1466  0.3837 -0.3626
 1307SOL    HW1 3977   3.976   4.386   3.954 -0.4536  0.5505  0.3525
 1307SOL    HW2 3978   3.888   4.267   3.988 -0.0160  0.2139  0.3230
 1308SOL     OW 3979   4.547   4.353   0.445  0.2588  0.1277 -0.0693
 1308SOL    HW1 3980   4.497   4.337   0.365 -1.8122  4.8218 -0.0288
 1308SOL    HW2 3981   4.502   4.302   0.512  0.3497 -1.7058 -1.3198
 1309SOL     OW 3982   0.807   2.097   2.109 -1.3588  0.0028 -0.4454
 1309SOL    HW1 3983   0.835   2.147   2.032  0.5838  0.5788  0.5845
 1309SOL    HW2 3984   0.855   2.014   2.103  1.7781  1.4439  1.9281
 1310SOL     OW 3985   1.719   0.797   4.311  0.2895 -0.0305 -0.2774
 1310SOL    HW1 3986   1.724   0.822   4.219 -1.7336  0.0907 -0.4187
 1310SOL    HW2 3987   1.652   0.855   4.347 -1.0191 -1.9629  0.5553
 1311SOL     OW 3988   3.137   0.280   2.376  0.0956  0.1811 -0.1690
 1311SOL    HW1 3989   3.161   0.189   2.358 -0.5572  0.1112 -0.7458
 1311SOL    HW2 3990   3.129   0.285   2.471  0.9945 -0.1379 -0.0661
 1312SOL     OW 3991   2.700   2.305   1.149  0.4859 -0.1519 -0.2602
 1312SOL    HW1 3992   2.654   2.388   1.163  0.6705  0.1074 -1.1289
 1312SOL    HW2 3993   2.766   2.325   1.083  0.3577 -1.0539 -0.6772
 1313SOL     OW 3994   4.946   3.743   4.891 -0.6757  0.0608 -0.0700
 1313SOL    HW1 3995   4.899   3.787   4.820 -2.6889 -1.1485  0.4543
 1313SOL    HW2 3996   4.880   3.730   4.959  0.7371 -0.6132  1.2201
 1314SOL     OW 3997   1.227   3.695   3.343  0.4297 -0.4328 -1.0731
 1314SOL    HW1 3998   1.190   3.775   3.379 -1.1871 -0.9203 -1.5912
 1314SOL    HW2 3999   1.322   3.712   3.340  0.1752  1.2290 -0.6691
 1315SOL     OW 4000   3.128   1.670   4.897  0.3706 -0.2921 -0.0470
 1315SOL    HW1 4001   3.055   1.624   4.938 -0.0781 -1.7014 -2.2625
 1315SOL    HW2 4002   3.203   1.651   4.953 -0.7684  0.6972  1.9467
 1316SOL     OW 4003   2.584   2.542   1.710 -0.0559  0.6417 -0.3710
 1316SOL    HW1 4004   2.504   2.537   1.761  0.6956  0.1620  0.8044
 1316SOL    HW2 4005   2.652   2.564   1.773  1.1028 -1.1049 -0.9160
 1317SOL     OW 4006   4.381   1.907   4.517  0.4978 -0.0697 -0.9106
 1317SOL    HW1 4007   4.295   1.905   4.475 -0.2258  0.0110  0.5014
 1317SOL    HW2 4008   4.384   1.992   4.561  0.9434 -0.4146 -0.2604
 1318SOL     OW 4009   1.635   0.929   3.162  0.0926  0.2652 -0.2235
 1318SOL    HW1 4010   1.559   0.877   3.187  0.7660 -0.0186  1.3904
 1318SOL    HW2 4011   1.696   0.866   3.124  0.2299  0.1552  0.1682
 1319SOL     OW 4012   4.232   1.642   2.749  0.2232  0.1445  0.0768
 1319SOL    HW1 4013   4.313   1.590   2.746 -0.0101 -0.1947 -0.7149
 1319SOL    HW2 4014   4.256   1.725   2.707  0.1037 -0.0463 -0.3746
 1320SOL     OW 4015   3.759   1.951   0.561  0.0605  0.1474  0.3306
 1320SOL    HW1 4016   3.784   1.962   0.653 -0.2817  1.1413  0.3164
 1320SOL    HW2 4017   3.707   1.871   0.560  4.0702 -2.7038  0.1745
 1321SOL     OW 4018   2.312   4.710   0.667  0.4234 -0.8696 -0.2068
 1321SOL    HW1 4019   2.278   4.621   0.669  0.7140 -0.9747  2.0703
 1321SOL    HW2 4020   2.258   4.758   0.731  1.6712  0.0519  0.1944
 1322SOL     OW 4021   4.919   2.933   0.389 -0.0658 -0.4486 -0.4668
 1322SOL    HW1 4022   4.824   2.924   0.380 -0.2098 -0.8518  1.1953
 1322SOL    HW2 4023   4.940   3.012   0.339 -1.1359 -0.8270 -1.5693
 1323SOL     OW 4024   3.018   3.950   0.551 -0.3674 -0.0024 -0.2344
 1323SOL    HW1 4025   3.002   4.022   0.613 -0.5656 -0.4542  0.2528
 1323SOL    HW2 4026   2.946   3.955   0.489 -2.1694 -1.6410  1.5833
 1324SOL     OW 4027   0.531   1.172   0.077 -0.5495  0.7745  0.5112
 1324SOL    HW1 4028   0.548   1.166   0.171 -0.3647  0.5297  0.4618
 1324SOL    HW2 4029   0.443   1.134   0.067  0.9611 -3.0503  0.0714
 1325SOL     OW 4030   0.755   3.128   4.073 -0.1818  0.4301  0.4627
 1325SOL    HW1 4031   0.845   3.125   4.041  0.3563 -0.2829  1.9170
 1325SOL    HW2 4032   0.745   3.046   4.122 -1.4604  0.7320  0.7444
 1326SOL     OW 4033   3.974   3.701   1.431  0.6237 -0.1415 -0.0653
 1326SOL    HW1 4034   3.966   3.607   1.412 -0.7999 -0.0459 -0.0309
 1326SOL    HW2 4035   3.896   3.722   1.483 -0.1950  1.4691 -1.8175
 1327SOL     OW 4036   1.456   1.787   4.219 -0.1215 -0.2036 -0.4901
 1327SOL    HW1 4037   1.439   1.876   4.249  2.2788 -0.2956  1.4406
 1327SOL    HW2 4038   1.381   1.766   4.163 -0.9140  2.8843 -0.7847
 1328SOL     OW 4039   4.500   1.187   3.702  0.1220 -0.3450  0.3247
 1328SOL    HW1 4040   4.473   1.257   3.761 -1.9300 -0.2592 -0.6230
 1328SOL    HW2 4041   4.562   1.229   3.642 -0.2421  0.3767  0.4422
 1329SOL     OW 4042   1.448   0.567   1.569 -0.6535 -0.5016  0.5299
 1329SOL    HW1 4043   1.541   0.547   1.574 -0.5947 -0.6311 -0.6333
 1329SOL    HW2 4044   1.411   0.494   1.519 -1.1017  0.3098 -0.3549
 1330SOL     OW 4045   3.240   1.341   4.262  0.1223 -0.1112  0.9131
 1330SOL    HW1 4046   3.179   1.399   4.305  0.1299  0.1400  0.5917
 1330SOL    HW2 4047   3.326   1.369   4.293  0.3491  1.7273 -1.1217
 1331SOL     OW 4048   2.867   4.189   1.419  0.1369 -0.1866 -0.0073
 1331SOL    HW1 4049   2.880   4.105   1.376 -1.7411 -1.2334  1.3042
 1331SOL    HW2 4050   2.863   4.167   1.513  2.1731  1.7314  0.6044
 1332SOL     OW 4051   3.115   5.012   0.486  0.1777  0.1094 -0.6030
 1332SOL    HW1 4052   3.067   4.949   0.540  2.1261 -0.5476  0.4232
 1332SOL    HW2 4053   3.181   4.960   0.441  0.6665  1.1699 -1.1444
 1333SOL     OW 4054   2.779   4.408   4.560 -0.3646 -0.4879 -0.2772
 1333SOL    HW1 4055   2.822   4.494   4.553 -0.5697 -0.3573  0.0427
 1333SOL    HW2 4056   2.842   4.353   4.606 -0.0973 -0.6045 -0.7731
 1334SOL     OW 4057   0.040   2.707   3.785 -0.0964 -0.2508  0.1322
 1334SOL    HW1 4058  -0.003   2.741   3.863  0.4855 -0.8374  0.7197
 1334SOL    HW2 4059   0.108   2.772   3.765  0.0503 -0.3269  0.3816
 1335SOL     OW 4060   0.546   0.085   0.525  0.3290  0.8003  0.1914
 1335SOL    HW1 4061   0.596   0.166   0.510 -1.0030  1.7632  0.7682
 1335SOL    HW2 4062   0.590   0.043   0.599 -0.1380  2.0276  1.1962
 1336SOL     OW 4063   4.742   0.996   3.468  0.5819  0.2009 -0.5385
 1336SOL    HW1 4064   4.751   1.002   3.373 -1.8379 -0.2403 -0.8633
 1336SOL    HW2 4065   4.655   0.957   3.482  0.5858  0.8676  1.8703
 1337SOL     OW 4066   1.076   0.665   0.210  0.1951  0.2127 -0.3928
 1337SOL    HW1 4067   1.111   0.739   0.260 -0.9737  1.4824 -1.3945
 1337SOL    HW2 4068   1.134   0.592   0.233  1.0510  1.2802  1.0535
 1338SOL     OW 4069   3.264   0.696   3.945 -0.3755  0.2468 -0.6859
 1338SOL    HW1 4070   3.324   0.640   3.895  0.0050  1.3750 -1.5280
 1338SOL    HW2 4071   3.244   0.645   4.024  2.2723  0.1212  0.0105
 1339SOL     OW 4072   3.265   4.241   0.792 -0.2328  0.2796 -0.3242
 1339SOL    HW1 4073   3.172   4.228   0.772  0.0895 -0.4715 -1.4584
 1339SOL    HW2 4074   3.279   4.194   0.874 -0.8160  0.2370 -0.2443
 1340SOL     OW 4075   0.548   4.950   0.217 -0.1256 -0.3191 -0.0698
 1340SOL    HW1 4076   0.625   4.920   0.264  0.1227 -0.5500 -0.6120
 1340SOL    HW2 4077   0.474   4.927   0.274  0.1893 -0.3203  0.3358
 1341SOL     OW 4078   1.855   4.750   3.032  0.8129  0.2599 -0.1079
 1341SOL    HW1 4079   1.849   4.660   3.001  1.7883  0.3740 -0.6794
 1341SOL    HW2 4080   1.854   4.742   3.128 -0.6488 -0.2185 -0.1425
 1342SOL     OW 4081   1.576   0.684   3.534  0.0350 -0.0549 -0.1306
 1342SOL    HW1 4082   1.588   0.713   3.625  1.9015  0.9869 -0.6600
 1342SOL    HW2 4083   1.486   0.652   3.531 -0.3515  0.6993  1.8622
 1343SOL     OW 4084   3.165   3.241   1.909 -0.3763  0.1319  0.3193
 1343SOL    HW1 4085   3.238   3.277   1.958 -0.3446  0.8547 -0.2390
 1343SOL    HW2 4086   3.156   3.152   1.941  1.5758 -0.4087 -0.5072
 1344SOL     OW 4087   1.078   4.341   1.734 -0.2514  0.0252  0.1384
 1344SOL    HW1 4088   1.069   4.246   1.721 -0.2480 -0.0716  0.8140
 1344SOL    HW2 4089   1.142   4.367   1.668 -0.5944 -0.3626 -0.3596
 1345SOL     OW 4090   4.370   0.042   0.322 -0.2060  0.0268 -0.1164
 1345SOL    HW1 4091   4.363  -0.021   0.250  0.0450  0.2260 -0.3206
 1345SOL    HW2 4092   4.463   0.041   0.344 -0.4722 -0.9746  1.0670
 1346SOL     OW 4093   1.936   0.040   2.710 -0.2640  0.1556 -0.1110
 1346SOL    HW1 4094   2.009   0.037   2.648 -0.2694 -1.4409 -0.0894
 1346SOL    HW2 4095   1.938   0.129   2.745  2.4058 -0.1571  0.7463
 1347SOL     OW 4096   3.588   0.746   1.039 -0.4563 -0.7525  0.1750
 1347SOL    HW1 4097   3.659   0.782   0.986 -0.6233 -0.6916 -0.0084
 1347SOL    HW2 4098   3.622   0.745   1.128 -0.2270 -0.7194  0.0875
 1348SOL     OW 4099   3.032   4.564   4.827 -0.2130  0.4606 -0.3522
 1348SOL    HW1 4100   3.046   4.487   4.882  1.2792  1.7919  1.2338
 1348SOL    HW2 4101   2.941   4.589   4.842 -0.4091 -0.3895 -0.0957
 1349SOL     OW 4102   1.284   2.672   0.234  0.4866 -0.5653 -0.0537
 1349SOL    HW1 4103   1.301   2.760   0.267 -0.8943  0.9682 -3.0576
 1349SOL    HW2 4104   1.192   2.656   0.253  0.6894 -1.3245  0.3376
 1350SOL     OW 4105   3.361   1.276   3.199  0.1391 -0.3341 -0.1346
 1350SOL    HW1 4106   3.312   1.208   3.153 -1.0382  0.1835  0.3212
 1350SOL    HW2 4107   3.389   1.336   3.130  0.5889 -0.9065 -0.4573
 1351SOL     OW 4108   3.417   4.592   1.693  0.4201 -0.3557  0.2045
 1351SOL    HW1 4109   3.342   4.639   1.730  1.6330 -0.0070  2.3894
 1351SOL    HW2 4110   3.493   4.635   1.730  1.8454  0.1279 -2.9320
 1352SOL     OW 4111   1.373   2.911   0.335  0.5115 -0.3621 -0.4757
 1352SOL    HW1 4112   1.342   2.978   0.275  1.6995 -0.9236 -1.7511
 1352SOL    HW2 4113   1.336   2.936   0.420 -1.5487  0.2273 -1.4726
 1353SOL     OW 4114   0.173   3.532   4.917  0.7368 -0.4584  0.3364
 1353SOL    HW1 4115   0.120   3.611   4.901  0.5876 -0.4522  0.8290
 1353SOL    HW2 4116   0.262   3.559   4.897  0.6581 -0.2264  0.2872
 1354SOL     OW 4117   4.355   4.047   4.329  0.3479 -0.2724  0.2925
 1354SOL    HW1 4118   4.295   4.056   4.254  0.0181  0.7161  0.6489
 1354SOL    HW2 4119   4.305   3.999   4.394  0.4977 -0.7990  0.0209
 1355SOL     OW 4120   4.336   2.308   1.066  0.5506  0.3903  0.0652
 1355SOL    HW1 4121   4.423   2.342   1.088  0.1917  0.3198  1.7389
 1355SOL    HW2 4122   4.317   2.344   0.979  0.7922  3.3037  1.0974
 1356SOL     OW 4123   3.634   2.577   3.235 -0.7697 -0.0073 -0.0005
 1356SOL    HW1 4124   3.613   2.670   3.223 -1.8145 -0.4985 -2.7750
 1356SOL    HW2 4125   3.721   2.567   3.196 -1.6922 -0.5725 -2.0418
 1357SOL     OW 4126   3.996   0.697   3.884  0.5880 -0.6705 -0.2889
 1357SOL    HW1 4127   4.044   0.744   3.953  1.4133 -0.8442 -0.7290
 1357SOL    HW2 4128   3.906   0.725   3.894  0.5393 -1.2872  1.3882
 1358SOL     OW 4129   1.321   1.818   1.561 -0.1555 -0.0503 -0.4988
 1358SOL    HW1 4130   1.234   1.801   1.524 -0.6758  0.2892  0.5322
 1358SOL    HW2 4131   1.327   1.758   1.635 -0.6392  1.7595  1.0917
 1359SOL     OW 4132   3.318   0.811   1.059  0.0413 -0.3868 -0.2837
 1359SOL    HW1 4133   3.318   0.904   1.037 -0.4814 -0.0869  0.9307
 1359SOL    HW2 4134   3.408   0.782   1.042  0.1807  0.3075 -0.7683
 1360SOL     OW 4135   1.177   4.368   1.994 -0.0180  0.4200 -0.4297
 1360SOL    HW1 4136   1.196   4.460   2.015 -0.4238  0.6132 -0.8704
 1360SOL    HW2 4137   1.140   4.371   1.906 -1.2450 -0.0143  0.0355
 1361SOL     OW 4138   1.729   4.330   1.312 -0.5004  0.2821 -0.4978
 1361SOL    HW1 4139   1.664   4.300   1.249 -0.3191  1.8230 -1.4577
 1361SOL    HW2 4140   1.803   4.271   1.300 -0.5843  0.3802 -1.5182
 1362SOL     OW 4141   3.583   0.473   0.927  0.5410 -0.1220 -0.4142
 1362SOL    HW1 4142   3.593   0.563   0.958 -2.6588  0.9570 -2.1227
 1362SOL    HW2 4143   3.563   0.423   1.007 -1.7174  1.4904  0.1114
 1363SOL     OW 4144   2.951   4.086   4.324  0.2525  0.1725  0.2623
 1363SOL    HW1 4145   2.973   4.179   4.333 -1.7302  0.6988  0.3107
 1363SOL    HW2 4146   2.899   4.067   4.402 -0.8167 -0.4950 -0.5851
 1364SOL     OW 4147   3.111   1.771   0.783 -0.2043  0.0488 -0.0058
 1364SOL    HW1 4148   3.087   1.680   0.800  0.0232 -0.4035 -1.9254
 1364SOL    HW2 4149   3.027   1.818   0.783 -0.4607 -0.3997 -0.3415
 1365SOL     OW 4150   1.040   0.948   4.523  0.0265 -0.4746  0.6620
 1365SOL    HW1 4151   1.135   0.942   4.516  0.1855  0.3422  1.7884
 1365SOL    HW2 4152   1.016   0.875   4.581 -0.3327 -2.1184 -1.4514
 1366SOL     OW 4153   3.946   2.595   1.959  0.0419 -0.5786  0.1770
 1366SOL    HW1 4154   4.001   2.521   1.983  2.4751  0.9350 -0.3266
 1366SOL    HW2 4155   3.912   2.573   1.873  0.8928 -1.0387 -0.0484
 1367SOL     OW 4156   3.579   4.887   2.939 -0.5944  0.2796  0.1048
 1367SOL    HW1 4157   3.520   4.847   2.874  0.1353 -0.3119 -0.2128
 1367SOL    HW2 4158   3.556   4.980   2.938  0.0575  0.4787 -1.7632
 1368SOL     OW 4159   3.997   3.437   1.424  0.0327 -0.0055 -0.5985
 1368SOL    HW1 4160   4.089   3.448   1.400  0.6287  0.8869  1.8173
 1368SOL    HW2 4161   3.998   3.368   1.490 -1.1857 -0.5611 -1.1305
 1369SOL     OW 4162   3.854   4.828   2.902  0.0479  0.3225 -0.4620
 1369SOL    HW1 4163   3.759   4.836   2.909 -0.0346  0.5761 -1.6557
 1369SOL    HW2 4164   3.872   4.737   2.926 -0.6710 -0.1736 -1.7293
 1370SOL     OW 4165   1.343   4.625   2.591  0.3390  0.3146 -0.3474
 1370SOL    HW1 4166   1.368   4.670   2.672 -0.9454 -0.5928  0.5973
 1370SOL    HW2 4167   1.362   4.687   2.521 -1.1322  2.2332  0.8648
 1371SOL     OW 4168   3.470   1.839   2.745  0.3494  0.7443  0.0436
 1371SOL    HW1 4169   3.420   1.821   2.824  4.0142 -1.7473  2.1344
 1371SOL    HW2 4170   3.484   1.933   2.746  1.2910  0.7086  3.2319
 1372SOL     OW 4171   0.761   3.685   1.582  0.0819  0.1997  0.0773
 1372SOL    HW1 4172   0.778   3.714   1.492 -2.1632  0.3525 -0.3819
 1372SOL    HW2 4173   0.806   3.602   1.590  0.9192  0.5371 -0.9523
 1373SOL     OW 4174   3.229   0.847   4.190  0.0262  0.3638 -0.1587
 1373SOL    HW1 4175   3.247   0.889   4.105  0.3403  0.0336 -0.2574
 1373SOL    HW2 4176   3.233   0.919   4.253  0.1361  0.5556 -0.3789
 1374SOL     OW 4177   0.240   0.156   1.383  0.9627  0.3006 -0.0551
 1374SOL    HW1 4178   0.175   0.203   1.331 -0.1927  0.1940  1.2266
 1374SOL    HW2 4179   0.315   0.146   1.325 -0.8322 -1.2868 -2.2978
 1375SOL     OW 4180   0.391   2.622   4.843  0.2227 -0.2699  0.3275
 1375SOL    HW1 4181   0.477   2.608   4.803  0.2173  0.5129  0.0235
 1375SOL    HW2 4182   0.329   2.590   4.778  0.2780 -0.7795  0.5215
 1376SOL     OW 4183   3.825   0.638   2.016  0.5633 -0.3236  0.0858
 1376SOL    HW1 4184   3.752   0.634   2.078  1.3484 -2.0612  0.9758
 1376SOL    HW2 4185   3.828   0.729   1.987 -1.8972 -0.1926  0.0747
 1377SOL     OW 4186   4.190   3.810   1.777  0.1714  0.1083 -0.2952
 1377SOL    HW1 4187   4.257   3.777   1.837  0.1715 -0.2500 -0.4910
 1377SOL    HW2 4188   4.110   3.766   1.804 -0.0141  0.6175  0.0079
 1378SOL     OW 4189   1.384   0.074   3.266 -0.6691 -0.3431  0.0307
 1378SOL    HW1 4190   1.334   0.131   3.207  1.3550  3.4556  1.6157
 1378SOL    HW2 4191   1.456   0.041   3.211  1.7821  3.9461  0.1853
 1379SOL     OW 4192   0.772   0.547   3.968  0.5370  0.1417 -0.5217
 1379SOL    HW1 4193   0.715   0.474   3.994  0.6738  0.1646 -0.1557
 1379SOL    HW2 4194   0.740   0.622   4.018 -0.4337  0.6491 -1.8565
 1380SOL     OW 4195   3.551   3.874   1.478 -0.3315  0.3172 -0.1181
 1380SOL    HW1 4196   3.542   3.965   1.449  0.1294  0.6290  0.7046
 1380SOL    HW2 4197   3.509   3.823   1.408 -3.5047  1.3171  0.8652
 1381SOL     OW 4198   2.927   0.664   1.038  0.1504 -0.4368  0.0372
 1381SOL    HW1 4199   2.903   0.662   1.130  1.0468  0.2157  0.3047
 1381SOL    HW2 4200   3.012   0.620   1.035  1.0182  1.1824 -0.1631
 1382SOL     OW 4201   1.572   3.444   1.560  0.2808 -0.0089  0.0581
 1382SOL    HW1 4202   1.645   3.503   1.580 -0.2875  0.4559  0.8703
 1382SOL    HW2 4203   1.549   3.405   1.644 -2.9836  2.9234  0.7955
 1383SOL     OW 4204   4.100   4.827   0.596  0.6352  0.0364  0.7726
 1383SOL    HW1 4205   4.115   4.896   0.532 -0.6785  0.3727  0.7953
 1383SOL    HW2 4206   4.185   4.785   0.607  1.5127  1.7814  0.9050
 1384SOL     OW 4207   0.000   3.717   2.431 -0.3029  0.2915  0.1325
 1384SOL    HW1 4208   0.061   3.782   2.395  1.4838 -1.2671  0.2086
 1384SOL    HW2 4209   0.039   3.691   2.514 -0.8763 -1.0098  0.0134
 1385SOL     OW 4210   3.938   3.084   1.476  0.1140  0.0327 -0.2668
 1385SOL    HW1 4211   3.976   3.160   1.521 -2.1270  1.1248 -0.0709
 1385SOL    HW2 4212   3.877   3.046   1.539 -0.2287 -0.7497 -1.0410
 1386SOL     OW 4213   1.250   2.016   4.717 -0.4951  0.2551  0.0327
 1386SOL    HW1 4214   1.305   2.062   4.781  1.2779 -0.5571 -0.8304
 1386SOL    HW2 4215   1.204   2.085   4.670  1.8404  1.2214 -1.0046
 1387SOL     OW 4216   4.772   0.445   0.845  0.4232  0.1214  1.1385
 1387SOL    HW1 4217   4.822   0.379   0.797  0.0278 -0.8063  1.9620
 1387SOL    HW2 4218   4.686   0.445   0.802  1.0294  1.5401 -0.1209
 1388SOL     OW 4219   4.457   3.744   1.875  0.0039 -0.2661  0.4465
 1388SOL    HW1 4220   4.423   3.684   1.942  0.3097  0.0024  0.8511
 1388SOL    HW2 4221   4.451   3.695   1.793  1.3899 -1.3285  0.9358
 1389SOL     OW 4222   0.390   4.167   3.650  0.3321 -0.4664 -0.0080
 1389SOL    HW1 4223   0.320   4.140   3.591 -0.9807  1.1688  0.6959
 1389SOL    HW2 4224   0.434   4.239   3.604 -0.4699  0.5768  0.7985
 1390SOL     OW 4225   1.800   3.731   1.101 -0.5341 -0.2573 -0.5676
 1390SOL    HW1 4226   1.879   3.695   1.062  0.7154 -0.5290  1.9924
 1390SOL    HW2 4227   1.750   3.654   1.130  0.6304 -0.1326  2.0689
 1391SOL     OW 4228   2.808   2.302   1.760  0.1344  0.1457 -0.8513
 1391SOL    HW1 4229   2.904   2.302   1.753  0.7142  3.4722  3.1920
 1391SOL    HW2 4230   2.778   2.333   1.674  2.8530  1.1017 -1.5672
 1392SOL     OW 4231   2.774   0.786   3.048 -0.4859  0.1516  0.0078
 1392SOL    HW1 4232   2.727   0.869   3.038 -0.3524  0.5187  1.9423
 1392SOL    HW2 4233   2.860   0.811   3.081  0.9319 -0.5614 -2.9094
 1393SOL     OW 4234   2.167   1.443   4.612  0.6012  0.4796  0.4536
 1393SOL    HW1 4235   2.125   1.373   4.562  1.1600  0.4105  0.0629
 1393SOL    HW2 4236   2.167   1.413   4.703  1.0813 -0.1604  0.2501
 1394SOL     OW 4237   1.303   2.231   1.221  0.1544 -0.4857 -0.0359
 1394SOL    HW1 4238   1.296   2.325   1.202  0.0854 -0.6255 -0.7114
 1394SOL    HW2 4239   1.398   2.216   1.229  0.1223 -0.1453  1.2160
 1395SOL     OW 4240   3.525   1.098   4.751  0.1540 -0.2811  0.4524
 1395SOL    HW1 4241   3.463   1.099   4.823  0.0156  0.0911  0.3350
 1395SOL    HW2 4242   3.484   1.152   4.683  0.7976  0.3455  0.5470
 1396SOL     OW 4243   1.102   4.968   1.642  0.4031 -0.9516  0.4962
 1396SOL    HW1 4244   1.141   5.051   1.668 -0.8702  0.6623 -2.2558
 1396SOL    HW2 4245   1.168   4.902   1.665  2.6295  1.0886  0.3834
 1397SOL     OW 4246   1.953   1.715   2.722  0.3827 -0.2535  0.4636
 1397SOL    HW1 4247   2.009   1.679   2.790 -1.3658  0.9428  2.6801
 1397SOL    HW2 4248   1.935   1.805   2.750  2.3289  1.5803 -3.4045
 1398SOL     OW 4249   4.782   2.182   2.292  0.6320 -0.2381 -0.0786
 1398SOL    HW1 4250   4.746   2.245   2.230 -0.8435 -1.0247 -0.0652
 1398SOL    HW2 4251   4.845   2.132   2.241  1.6113  1.0396 -0.1620
 1399SOL     OW 4252   3.175   2.989   1.437  0.1405  0.6100 -0.1700
 1399SOL    HW1 4253   3.224   2.981   1.355 -0.0659 -0.7266 -0.1817
 1399SOL    HW2 4254   3.084   3.005   1.409 -0.4270 -2.3870 -0.3311
 1400SOL     OW 4255   2.130   2.775   3.358 -0.2583  0.2221  0.3026
 1400SOL    HW1 4256   2.168   2.847   3.408 -0.4558  1.1320 -0.8102
 1400SOL    HW2 4257   2.134   2.805   3.267 -0.6265 -1.0529 -0.1501
 1401SOL     OW 4258   4.553   0.295   2.485  0.4083 -0.2399 -0.7997
 1401SOL    HW1 4259   4.502   0.362   2.531  0.3480  0.7263 -2.2351
 1401SOL    HW2 4260   4.570   0.228   2.552 -1.0298  0.3619  0.2092
 1402SOL     OW 4261   2.915   3.804   1.784 -0.0460  0.7210 -0.1473
 1402SOL    HW1 4262   3.005   3.819   1.812  0.0751  0.4109 -0.3547
 1402SOL    HW2 4263   2.872   3.765   1.861  0.3981 -0.5269 -0.5090
 1403SOL     OW 4264   4.159   4.864   1.700  0.2331  0.1346  0.6934
 1403SOL    HW1 4265   4.252   4.881   1.717  0.8639 -1.7360 -0.5157
 1403SOL    HW2 4266   4.146   4.773   1.729 -1.5786  0.7682  2.0376
 1404SOL     OW 4267   1.993   1.068   4.931  0.0076 -0.1915 -0.2233
 1404SOL    HW1 4268   2.024   0.983   4.964  0.6696  0.2537  0.3549
 1404SOL    HW2 4269   1.898   1.061   4.931  0.0494 -0.8417  0.0718
 1405SOL     OW 4270   3.406   3.032   2.502 -0.3873 -0.1079  0.2300
 1405SOL    HW1 4271   3.400   3.119   2.463 -0.3597 -0.5151 -0.7084
 1405SOL    HW2 4272   3.340   2.981   2.457 -0.8950 -0.4066  1.2785
 1406SOL     OW 4273   4.070   1.248   1.126 -0.3973 -0.0867 -0.2216
 1406SOL    HW1 4274   4.130   1.217   1.194  0.8363  2.4908 -0.0256
 1406SOL    HW2 4275   4.090   1.341   1.117 -2.4937  0.2582 -2.1452
 1407SOL     OW 4276   0.424   0.405   4.478 -0.5300 -0.2700 -0.2996
 1407SOL    HW1 4277   0.493   0.411   4.412 -1.0640  1.2813 -0.7394
 1407SOL    HW2 4278   0.471   0.404   4.561  0.0322  1.1054 -0.5791
 1408SOL     OW 4279   2.835   1.406   0.549  0.6826  0.3549  0.0633
 1408SOL    HW1 4280   2.765   1.471   0.562 -0.2438 -0.2116 -1.6571
 1408SOL    HW2 4281   2.810   1.332   0.605  1.7245  1.4221  2.0029
 1409SOL     OW 4282   2.424   0.600   0.313 -0.4278 -0.4987  0.4409
 1409SOL    HW1 4283   2.359   0.654   0.357 -2.2559 -2.7345  0.6905
 1409SOL    HW2 4284   2.397   0.599   0.222  0.5793  0.3007  0.1127
 1410SOL     OW 4285   4.011   1.987   3.369 -0.1369 -0.3298  0.1379
 1410SOL    HW1 4286   4.010   1.928   3.294  0.4521  0.2524 -0.3449
 1410SOL    HW2 4287   4.094   1.969   3.412  0.4531  0.7157 -0.5031
 1411SOL     OW 4288   0.879   4.230   2.719  0.2528 -0.5547 -0.3449
 1411SOL    HW1 4289   0.912   4.312   2.684 -1.0887 -0.0367 -0.4485
 1411SOL    HW2 4290   0.866   4.247   2.813 -1.2464 -0.2000 -0.5853
 1412SOL     OW 4291   2.360   1.054   2.079  0.0414 -0.3481 -0.3098
 1412SOL    HW1 4292   2.367   1.094   2.165 -1.5288 -0.2822 -0.1864
 1412SOL    HW2 4293   2.447   1.017   2.062  0.3261 -0.4958  1.3555
 1413SOL     OW 4294   4.742   1.294   3.664  0.2075 -0.2709 -0.1057
 1413SOL    HW1 4295   4.751   1.292   3.759  0.3488  0.2221 -0.1067
 1413SOL    HW2 4296   4.806   1.230   3.633 -0.6013 -1.2367  0.1742
 1414SOL     OW 4297   3.161   4.438   3.635  0.3476  0.0864 -0.0049
 1414SOL    HW1 4298   3.190   4.488   3.711  0.1644 -0.0719  0.1685
 1414SOL    HW2 4299   3.196   4.350   3.649 -0.7087 -0.2655  0.4971
 1415SOL     OW 4300   4.613   3.278   3.764 -0.8079 -0.0706 -0.2608
 1415SOL    HW1 4301   4.678   3.212   3.739 -1.0321 -0.8187  1.0356
 1415SOL    HW2 4302   4.654   3.324   3.837 -2.0095 -1.0765  1.1015
 1416SOL     OW 4303   1.737   4.847   2.820 -0.0866 -0.0091 -0.1212
 1416SOL    HW1 4304   1.810   4.896   2.781 -0.1216 -1.0117 -1.5191
 1416SOL    HW2 4305   1.773   4.811   2.901  0.5992  0.4946 -0.1924
 1417SOL     OW 4306   0.203   2.773   2.380  0.2904 -0.0549 -0.1523
 1417SOL    HW1 4307   0.278   2.831   2.391  2.9009 -2.8277 -1.7429
 1417SOL    HW2 4308   0.196   2.726   2.462  0.2584  0.2338  0.0113
 1418SOL     OW 4309   2.369   2.831   2.721 -0.7652 -0.4616  0.3074
 1418SOL    HW1 4310   2.446   2.776   2.737 -1.1518 -1.1577 -0.1727
 1418SOL    HW2 4311   2.311   2.814   2.795 -1.2687 -1.4006 -0.2854
 1419SOL     OW 4312   4.198   3.061   0.563 -0.6690  0.1216 -0.0198
 1419SOL    HW1 4313   4.218   3.068   0.656  0.0957 -0.5138 -0.1274
 1419SOL    HW2 4314   4.107   3.090   0.556  0.0144  2.6788  0.5451
 1420SOL     OW 4315   0.726  -0.006   2.394 -0.4400 -0.0515  0.1163
 1420SOL    HW1 4316   0.760   0.082   2.380 -1.1411  0.3886  1.0607
 1420SOL    HW2 4317   0.651   0.006   2.453 -1.0622 -1.1890 -0.3989
 1421SOL     OW 4318   4.874   3.612   0.515 -0.0654 -0.1491  0.5839
 1421SOL    HW1 4319   4.875   3.703   0.485 -1.2372 -0.8968 -2.0965
 1421SOL    HW2 4320   4.944   3.606   0.579  2.2999  1.8896 -1.6211
 1422SOL     OW 4321   1.060   0.802   2.710 -0.5957 -0.0776 -0.0198
 1422SOL    HW1 4322   1.042   0.730   2.650  1.7166  0.5311 -1.5662
 1422SOL    HW2 4323   1.114   0.763   2.779 -3.2528 -0.7773  1.8204
 1423SOL     OW 4324   4.881   4.210   4.847  0.1560 -0.7554  0.4488
 1423SOL    HW1 4325   4.971   4.235   4.826  0.1116 -0.0594  1.0409
 1423SOL    HW2 4326   4.827   4.268   4.792  0.0478  0.7499  2.0438
 1424SOL     OW 4327   0.852   4.819   1.087  0.6598  0.0254 -0.0895
 1424SOL    HW1 4328   0.945   4.802   1.102  0.0567 -1.4584  2.4863
 1424SOL    HW2 4329   0.830   4.766   1.010  1.7226 -0.4269 -0.0944
 1425SOL     OW 4330   3.733   2.903   2.171  0.4351 -0.1765 -0.3806
 1425SOL    HW1 4331   3.814   2.854   2.184  1.0688  0.5997 -1.2821
 1425SOL    HW2 4332   3.729   2.962   2.246  0.5989 -0.3523 -0.2314
 1426SOL     OW 4333   2.216   4.666   1.203  0.0590  0.0581  0.2801
 1426SOL    HW1 4334   2.153   4.600   1.230  0.0908  0.1118  0.4851
 1426SOL    HW2 4335   2.281   4.669   1.273  1.1211 -1.0628 -0.6040
 1427SOL     OW 4336   4.908   0.905   1.781  0.2620 -0.3561 -0.1905
 1427SOL    HW1 4337   4.816   0.927   1.769  0.1623  1.3465  2.5515
 1427SOL    HW2 4338   4.955   0.985   1.756  0.7708 -0.4055  0.5728
 1428SOL     OW 4339   4.175   2.310   3.769  0.4646 -0.1388 -0.2895
 1428SOL    HW1 4340   4.163   2.384   3.828 -1.6741 -0.2803 -0.4720
 1428SOL    HW2 4341   4.117   2.242   3.805 -0.3191 -0.4831 -2.1095
 1429SOL     OW 4342   2.368   4.712   0.968 -0.0871  0.3134  0.3130
 1429SOL    HW1 4343   2.313   4.789   0.950 -0.0460  0.1877 -0.3994
 1429SOL    HW2 4344   2.326   4.670   1.043 -0.1261  1.0141  0.6919
 1430SOL     OW 4345   0.618   4.055   4.030  0.0385  0.1402 -0.6923
 1430SOL    HW1 4346   0.628   3.963   4.053  0.8121 -0.6815 -3.7899
 1430SOL    HW2 4347   0.676   4.102   4.090 -1.1438 -1.2263  1.6087
 1431SOL     OW 4348   3.595   1.264   3.585 -0.5572  0.3991  0.4442
 1431SOL    HW1 4349   3.630   1.290   3.499  1.2937  1.7396  1.5114
 1431SOL    HW2 4350   3.557   1.345   3.620 -0.6440  0.0542  1.1566
 1432SOL     OW 4351   3.217   3.850   4.561  0.1625  0.6505  0.1719
 1432SOL    HW1 4352   3.228   3.941   4.535  2.4364  0.4527  0.2145
 1432SOL    HW2 4353   3.155   3.853   4.634 -1.3493  1.8948 -1.0903
 1433SOL     OW 4354   4.639   2.465   0.346 -0.1281  0.1916  0.0566
 1433SOL    HW1 4355   4.694   2.501   0.277 -2.0539  1.0281 -1.1269
 1433SOL    HW2 4356   4.605   2.542   0.392 -2.6038 -0.1211 -1.1342
 1434SOL     OW 4357   3.463   3.639   1.973 -0.2044 -0.2602 -0.3536
 1434SOL    HW1 4358   3.398   3.683   2.028 -0.2150 -1.8366  0.9668
 1434SOL    HW2 4359   3.490   3.706   1.910 -0.3996  1.5464  1.3788
 1435SOL     OW 4360   1.335   1.394   4.753 -0.1114  0.4867 -0.7360
 1435SOL    HW1 4361   1.261   1.347   4.790 -0.0338  0.1724 -0.9771
 1435SOL    HW2 4362   1.299   1.478   4.725 -0.2924  0.4904 -0.4890
 1436SOL     OW 4363   4.241   1.551   4.390  0.2489 -0.5556 -0.0788
 1436SOL    HW1 4364   4.225   1.489   4.318 -2.3701 -0.5880  0.4377
 1436SOL    HW2 4365   4.255   1.496   4.466 -2.3812 -0.6563  0.4426
 1437SOL     OW 4366   3.201   4.939   2.680 -0.0706 -0.0793  0.6280
 1437SOL    HW1 4367   3.209   5.032   2.701 -0.8386  0.3057 -0.6151
 1437SOL    HW2 4368   3.107   4.921   2.683 -0.0811 -0.3896 -0.7167
 1438SOL     OW 4369   2.595   0.052   4.704  0.7536  0.2215  0.0692
 1438SOL    HW1 4370   2.539  -0.021   4.677  0.1916  0.4355  0.6397
 1438SOL    HW2 4371   2.597   0.047   4.799  1.5949  0.3119  0.0621
 1439SOL     OW 4372   1.343   2.870   4.896  0.8929  0.0111  0.0698
 1439SOL    HW1 4373   1.250   2.862   4.919  0.7312  0.2460 -0.4705
 1439SOL    HW2 4374   1.343   2.924   4.816  1.4978  0.0678  0.1035
 1440SOL     OW 4375   2.355   2.656   0.331 -0.4121  0.2188  0.2686
 1440SOL    HW1 4376   2.431   2.619   0.377 -0.3136  0.5773  0.3962
 1440SOL    HW2 4377   2.281   2.639   0.390 -0.0232  2.3150  1.4727
 1441SOL     OW 4378   4.293   1.286   1.341 -0.0984  0.1110 -0.0672
 1441SOL    HW1 4379   4.351   1.283   1.417 -0.6510  1.2007  0.4272
 1441SOL    HW2 4380   4.257   1.375   1.343 -1.7604 -0.5240 -0.3622
 1442SOL     OW 4381   4.439   0.292   3.747  0.3636  0.1570  0.5781
 1442SOL    HW1 4382   4.389   0.352   3.801 -1.0078 -0.7065  0.3026
 1442SOL    HW2 4383   4.374   0.249   3.691  1.6323  0.4279 -1.2031
 1443SOL     OW 4384   2.598   2.212   4.878  0.1936  0.2361 -0.0124
 1443SOL    HW1 4385   2.594   2.181   4.788  0.7672  0.9335 -0.2911
 1443SOL    HW2 4386   2.662   2.155   4.921  0.9904  0.7966 -0.4304
 1444SOL     OW 4387   0.483   0.104   4.230  0.3940 -0.3279 -0.0072
 1444SOL    HW1 4388   0.471   0.199   4.224 -1.5276 -0.6046 -1.7893
 1444SOL    HW2 4389   0.573   0.089   4.202  0.6492  0.9596  0.0652
 1445SOL     OW 4390   3.085   2.611   3.423  0.3431  0.5419 -0.5033
 1445SOL    HW1 4391   3.066   2.618   3.330  2.0362 -2.1989 -1.1908
 1445SOL    HW2 4392   3.159   2.670   3.438  1.2324 -0.3315 -1.3451
 1446SOL     OW 4393   0.946   4.084   4.309 -0.8315  0.2776 -0.0605
 1446SOL    HW1 4394   0.931   4.016   4.374 -0.9617  0.3902  0.0281
 1446SOL    HW2 4395   0.892   4.158   4.338  0.7264  1.0889  0.8693
 1447SOL     OW 4396   4.129   2.376   3.511 -0.1955  0.3900 -0.0922
 1447SOL    HW1 4397   4.040   2.349   3.532 -1.0735  1.2731 -2.3532
 1447SOL    HW2 4398   4.176   2.368   3.594 -1.4513 -3.4170  0.4690
 1448SOL     OW 4399   4.225   2.267   0.785 -0.6116  0.5824 -0.0638
 1448SOL    HW1 4400   4.151   2.219   0.750 -0.3458 -1.4477  1.9048
 1448SOL    HW2 4401   4.186   2.337   0.838 -1.1056 -0.0416  0.3979
 1449SOL     OW 4402   2.914   2.246   4.087  0.4640  0.4447 -0.4621
 1449SOL    HW1 4403   2.822   2.254   4.111  0.2960 -1.8339 -0.1247
 1449SOL    HW2 4404   2.917   2.274   3.996 -0.8952 -0.8636 -0.9666
 1450SOL     OW 4405   2.353   3.123   4.662  0.1299  0.1253  0.0999
 1450SOL    HW1 4406   2.394   3.208   4.644 -1.2243  1.4438  2.6282
 1450SOL    HW2 4407   2.401   3.090   4.738 -2.0016  0.7560  1.8373
 1451SOL     OW 4408   4.189   3.793   2.926  0.0566  0.7123  0.1341
 1451SOL    HW1 4409   4.283   3.798   2.913 -0.1433  2.0155 -0.9975
 1451SOL    HW2 4410   4.155   3.757   2.844 -0.4772  0.7001  0.3531
 1452SOL     OW 4411   1.728   3.550   4.298 -0.1564  0.0891  0.0488
 1452SOL    HW1 4412   1.721   3.574   4.390  1.5080  2.0714 -0.2412
 1452SOL    HW2 4413   1.734   3.634   4.252  1.2277 -0.8503 -1.6205
 1453SOL     OW 4414   3.355   2.398   0.286  0.6441 -0.4665 -0.0359
 1453SOL    HW1 4415   3.419   2.468   0.298  1.5704 -1.4593  1.0742
 1453SOL    HW2 4416   3.395   2.322   0.327 -1.0556 -1.2400  0.2730
 1454SOL     OW 4417   0.518   3.077   0.823 -0.9618 -0.0070  0.4008
 1454SOL    HW1 4418   0.571   3.097   0.900  0.0431  0.2463 -0.3414
 1454SOL    HW2 4419   0.561   3.123   0.751 -1.6583 -0.5598 -0.3922
 1455SOL     OW 4420   4.833   0.682   3.552 -0.0561 -0.4973 -0.4847
 1455SOL    HW1 4421   4.920   0.656   3.522  0.6470  2.0362 -0.9090
 1455SOL    HW2 4422   4.850   0.750   3.618 -1.7038 -1.4062  0.9277
 1456SOL     OW 4423   0.637   1.131   4.768  0.2635 -0.6701 -0.1538
 1456SOL    HW1 4424   0.732   1.126   4.775  0.2604 -1.0753 -0.3643
 1456SOL    HW2 4425   0.609   1.169   4.851  0.8839  3.0271 -1.4720
 1457SOL     OW 4426   0.323   2.949   3.641 -0.3915 -0.1525  0.3289
 1457SOL    HW1 4427   0.375   2.926   3.564  0.6253  0.3526  0.8436
 1457SOL    HW2 4428   0.361   2.899   3.713  0.7731  1.7542  1.1261
 1458SOL     OW 4429   1.549   1.185   3.619 -0.1504  0.1685 -0.7939
 1458SOL    HW1 4430   1.481   1.252   3.609  1.0272  1.2943 -1.5090
 1458SOL    HW2 4431   1.605   1.218   3.689  0.3532 -0.1430 -1.0461
 1459SOL     OW 4432   3.746   1.778   2.964 -0.4702 -0.1978 -0.2497
 1459SOL    HW1 4433   3.752   1.869   2.991 -1.1393 -0.0004 -0.7247
 1459SOL    HW2 4434   3.771   1.779   2.871 -0.1146 -0.5557 -0.1588
 1460SOL     OW 4435   2.461   0.989   0.208  0.0199  0.8806 -0.2315
 1460SOL    HW1 4436   2.494   0.901   0.222 -1.0817  0.6252  1.0089
 1460SOL    HW2 4437   2.429   1.017   0.294 -2.0153  1.4716 -1.0965
 1461SOL     OW 4438   1.125   0.082  -0.004 -0.2664 -0.1461 -0.0084
 1461SOL    HW1 4439   1.053   0.026  -0.033  1.3438 -1.7813 -1.0508
 1461SOL    HW2 4440   1.093   0.122   0.077 -1.4871 -2.6749  0.8664
 1462SOL     OW 4441   0.149   2.624   4.672  0.6099 -0.2170 -0.5996
 1462SOL    HW1 4442   0.098   2.549   4.704  0.1738 -1.0359 -3.0493
 1462SOL    HW2 4443   0.094   2.664   4.605  1.1503  1.9204  0.1672
 1463SOL     OW 4444   0.340   3.995   2.486 -0.0204  0.3549  0.3108
 1463SOL    HW1 4445   0.364   4.071   2.433  1.2074 -0.6540 -0.6492
 1463SOL    HW2 4446   0.257   3.965   2.449  1.3760 -1.0256 -1.8955
 1464SOL     OW 4447   3.752   2.145   3.359 -0.0966  0.0664 -0.2148
 1464SOL    HW1 4448   3.846   2.134   3.372 -0.0966  0.6950  0.4366
 1464SOL    HW2 4449   3.725   2.203   3.431 -0.4566  2.3049 -2.0199
 1465SOL     OW 4450   4.438   4.388   3.737  0.3829 -0.6067 -0.1418
 1465SOL    HW1 4451   4.435   4.441   3.817  0.7323 -0.4960 -0.1982
 1465SOL    HW2 4452   4.531   4.387   3.713  0.2771 -0.6156 -0.5601
 1466SOL     OW 4453   0.788   4.266   2.971 -0.2807  0.5135  0.1068
 1466SOL    HW1 4454   0.715   4.326   2.985  0.4723  2.1768 -2.2768
 1466SOL    HW2 4455   0.857   4.297   3.030  0.1816  2.2868 -1.2645
 1467SOL     OW 4456   1.051   2.139   0.459 -0.1231  0.1146  0.4880
 1467SOL    HW1 4457   1.051   2.148   0.364  0.5404  2.5263  0.6690
 1467SOL    HW2 4458   1.026   2.047   0.474 -1.3476 -0.0317 -1.9505
 1468SOL     OW 4459   0.756   0.845   4.524  0.4332 -0.1670 -0.5188
 1468SOL    HW1 4460   0.835   0.884   4.487  1.4423 -0.8856  0.7982
 1468SOL    HW2 4461   0.788   0.774   4.579 -1.0888 -0.0783  0.5446
 1469SOL     OW 4462   4.909   1.618   3.890  0.0748 -0.2941 -0.4011
 1469SOL    HW1 4463   4.931   1.612   3.983 -1.8617 -0.6608  0.0722
 1469SOL    HW2 4464   4.938   1.706   3.864 -1.2289  0.6191  1.0933
 1470SOL     OW 4465   2.841   0.258   2.549 -0.0010  0.1865 -0.2427
 1470SOL    HW1 4466   2.775   0.211   2.497 -2.9254  1.3279  2.0954
 1470SOL    HW2 4467   2.860   0.200   2.623  0.6232  0.4153 -0.2166
 1471SOL     OW 4468   2.963   2.991   2.833  0.3552 -0.1359  0.0717
 1471SOL    HW1 4469   2.995   3.081   2.830 -2.0363  0.7859 -0.5079
 1471SOL    HW2 4470   2.946   2.969   2.741 -0.5002 -0.6034  0.3305
 1472SOL     OW 4471   2.547   3.063   0.501 -0.1647 -0.0817 -0.1440
 1472SOL    HW1 4472   2.495   3.005   0.556  0.0045  0.8706  1.0639
 1472SOL    HW2 4473   2.488   3.089   0.430 -1.7804  1.8279  1.7621
 1473SOL     OW 4474   0.198   0.418   2.579 -0.5781 -0.3315  0.4545
 1473SOL    HW1 4475   0.110   0.449   2.600  0.0106  2.4642 -0.8070
 1473SOL    HW2 4476   0.187   0.367   2.499 -1.0844 -0.3351  0.5215
 1474SOL     OW 4477   1.665   4.011   1.882  0.1571 -0.5235  0.8352
 1474SOL    HW1 4478   1.572   3.988   1.885 -0.0425  0.2642  0.8041
 1474SOL    HW2 4479   1.692   4.012   1.974  0.3579 -1.5860  0.8065
 1475SOL     OW 4480   4.080   3.005   3.580  0.2260  0.2220 -0.2667
 1475SOL    HW1 4481   4.064   2.959   3.663  0.0908 -1.8671 -1.3945
 1475SOL    HW2 4482   4.100   2.936   3.518  1.4732  1.8356 -1.7497
 1476SOL     OW 4483   4.428   2.468   3.546 -0.1215 -0.2209  0.8455
 1476SOL    HW1 4484   4.460   2.493   3.460 -0.5138  0.2440  0.8318
 1476SOL    HW2 4485   4.426   2.550   3.596 -1.4391 -0.2070  0.7935
 1477SOL     OW 4486   3.179   2.452   4.926 -0.6525 -0.1694  0.5225
 1477SOL    HW1 4487   3.146   2.483   5.010  0.4084 -2.6840  1.9929
 1477SOL    HW2 4488   3.142   2.364   4.916 -0.4839 -0.0654 -1.5184
 1478SOL     OW 4489   3.641   2.239   4.245  0.1841 -0.1631 -0.1999
 1478SOL    HW1 4490   3.585   2.291   4.303  0.9631  1.7756 -1.0685
 1478SOL    HW2 4491   3.729   2.251   4.281  0.5165  0.0439 -1.0599
 1479SOL     OW 4492   4.608   2.656   0.540 -0.4462 -0.2694  0.0893
 1479SOL    HW1 4493   4.673   2.665   0.610 -0.6209 -1.9132  0.5049
 1479SOL    HW2 4494   4.547   2.589   0.572 -0.2027 -1.5034 -1.8370
 1480SOL     OW 4495   0.927   1.970   1.321 -0.0239  0.5802  0.3424
 1480SOL    HW1 4496   0.993   1.948   1.388  0.3071 -2.9404 -0.9107
 1480SOL    HW2 4497   0.977   1.997   1.245 -0.1621  0.5318  0.2332
 1481SOL     OW 4498   1.389   3.342   4.808 -0.0907 -0.5666 -0.0656
 1481SOL    HW1 4499   1.318   3.348   4.872  1.4333  1.0862  1.5999
 1481SOL    HW2 4500   1.446   3.272   4.841  0.5130  0.0500  0.2465
 1482SOL     OW 4501   2.372   4.169   3.125  0.6925 -0.0271  0.2088
 1482SOL    HW1 4502   2.454   4.148   3.170  1.5854 -0.1241 -1.3833
 1482SOL    HW2 4503   2.388   4.146   3.033 -1.1791 -0.1866 -0.1236
 1483SOL     OW 4504   3.736   2.400   0.085 -1.0668 -0.1673 -0.6212
 1483SOL    HW1 4505   3.735   2.461   0.011 -2.0476  1.1346  0.4109
 1483SOL    HW2 4506   3.723   2.314   0.046  0.2697  0.2800 -2.1158
 1484SOL     OW 4507   1.969   1.218   2.713  0.6236 -0.0902  0.3673
 1484SOL    HW1 4508   1.989   1.228   2.806  0.0487 -0.1764  0.5039
 1484SOL    HW2 4509   1.923   1.134   2.707  0.7803 -0.1523 -0.0182
 1485SOL     OW 4510   4.439   4.811   2.059 -0.5357 -0.4196  0.1590
 1485SOL    HW1 4511   4.354   4.819   2.102 -1.3724  2.4464 -1.7295
 1485SOL    HW2 4512   4.479   4.898   2.067  0.8571 -0.8265 -1.5990
 1486SOL     OW 4513   0.913   1.027   4.801  0.3058 -0.0456  0.2348
 1486SOL    HW1 4514   0.998   1.026   4.845  0.7105 -0.6704 -0.5335
 1486SOL    HW2 4515   0.935   1.023   4.708 -0.5679 -3.2955  0.0475
 1487SOL     OW 4516   2.322   2.399   4.454 -0.2901 -0.5470 -0.2330
 1487SOL    HW1 4517   2.393   2.335   4.451 -1.9546 -2.5703  0.4996
 1487SOL    HW2 4518   2.279   2.392   4.368 -0.1661 -0.0069 -0.3428
 1488SOL     OW 4519   0.000   4.228   1.319 -0.2921 -0.3624 -0.2344
 1488SOL    HW1 4520  -0.061   4.177   1.267 -0.3983  0.4013 -0.8884
 1488SOL    HW2 4521   0.086   4.192   1.298 -0.3290 -0.0158 -1.0166
 1489SOL     OW 4522   0.739   2.458   0.668  0.1108  0.1663 -0.4614
 1489SOL    HW1 4523   0.723   2.386   0.607 -0.5884 -0.7810  0.7872
 1489SOL    HW2 4524   0.795   2.421   0.736 -1.8441  0.1467  1.2588
 1490SOL     OW 4525   1.107   1.155   2.724 -0.1820 -0.0938 -0.2945
 1490SOL    HW1 4526   1.111   1.088   2.656 -0.2404 -0.3864 -0.0080
 1490SOL    HW2 4527   1.139   1.112   2.803 -0.8464  0.0247  0.0414
 1491SOL     OW 4528   3.325   0.660   1.463  0.1681 -0.6797  0.1759
 1491SOL    HW1 4529   3.291   0.735   1.510  1.9448 -0.2744  0.9180
 1491SOL    HW2 4530   3.253   0.630   1.408 -0.2689  2.2643 -1.0358
 1492SOL     OW 4531   3.144   3.416   0.867 -0.3318  0.4702 -0.3323
 1492SOL    HW1 4532   3.229   3.423   0.911 -0.1388 -0.5108 -0.5440
 1492SOL    HW2 4533   3.164   3.421   0.774 -0.1221 -2.7958 -0.5566
 1493SOL     OW 4534   4.176   1.863   1.774  0.0292  0.3473  0.4012
 1493SOL    HW1 4535   4.124   1.837   1.850  1.6654  0.2729  1.5363
 1493SOL    HW2 4536   4.265   1.869   1.806  0.8924 -0.3502 -1.6720
 1494SOL     OW 4537   0.721   2.479   0.204 -0.7132  0.4061 -0.6452
 1494SOL    HW1 4538   0.761   2.433   0.278 -0.8459  0.1807 -0.7155
 1494SOL    HW2 4539   0.775   2.457   0.129 -0.6907  0.4809 -0.6509
 1495SOL     OW 4540   1.063   3.516   0.176  0.0866  0.3417 -0.0356
 1495SOL    HW1 4541   1.136   3.567   0.210 -0.2589  0.9159 -0.1280
 1495SOL    HW2 4542   1.000   3.512   0.248  0.1117  0.0446 -0.0289
 1496SOL     OW 4543   4.904   1.305   0.781  0.3778 -0.7260  0.1265
 1496SOL    HW1 4544   4.981   1.294   0.836  0.2877 -0.9736  0.2055
 1496SOL    HW2 4545   4.914   1.392   0.743  1.6213 -1.4547 -1.3015
 1497SOL     OW 4546   0.009   4.562   3.741 -0.6087 -0.1829  0.2053
 1497SOL    HW1 4547   0.073   4.623   3.705  0.2082 -2.4189 -2.4743
 1497SOL    HW2 4548   0.048   4.531   3.823  1.4293 -0.8631 -0.9514
 1498SOL     OW 4549   3.398   3.348   4.011  0.2945  0.6195 -0.7158
 1498SOL    HW1 4550   3.337   3.283   3.976  1.0469 -0.1800 -0.5796
 1498SOL    HW2 4551   3.454   3.298   4.071 -0.0945  1.6949  0.5936
 1499SOL     OW 4552   1.927   4.896   0.688 -0.1695 -0.3678  0.5358
 1499SOL    HW1 4553   1.956   4.913   0.599 -1.6295 -0.7067 -0.0401
 1499SOL    HW2 4554   1.878   4.975   0.712 -0.5417 -0.6366  0.6811
 1500SOL     OW 4555   3.028   2.724   4.404 -0.0702 -0.1178 -0.0767
 1500SOL    HW1 4556   3.066   2.640   4.430  1.7253  0.7477  0.3014
 1500SOL    HW2 4557   2.969   2.703   4.332  0.2461 -1.7108  0.0946
 1501SOL     OW 4558   1.257   4.372   2.649  0.6533  0.0560  0.3256
 1501SOL    HW1 4559   1.271   4.460   2.612 -1.8004 -0.2971 -1.7520
 1501SOL    HW2 4560   1.308   4.314   2.593 -1.1347 -0.2125 -1.1423
 1502SOL     OW 4561   2.418   3.549   0.161 -0.3329  0.0504  0.2173
 1502SOL    HW1 4562   2.444   3.518   0.248 -0.1033  0.0983  0.1653
 1502SOL    HW2 4563   2.426   3.471   0.105  3.2245  0.8179 -0.5812
 1503SOL     OW 4564   1.321   2.568   3.029 -0.2466  0.5443 -0.5303
 1503SOL    HW1 4565   1.270   2.535   2.956 -0.8542  1.7292 -0.6760
 1503SOL    HW2 4566   1.260   2.624   3.077  0.3143  0.2631  0.5355
 1504SOL     OW 4567   3.700   4.843   4.743 -0.2021 -0.5168 -0.1167
 1504SOL    HW1 4568   3.754   4.886   4.809 -1.1578  0.0322  0.3224
 1504SOL    HW2 4569   3.729   4.882   4.660 -2.0829  2.2160  0.3767
 1505SOL     OW 4570   1.872   2.506   4.881  0.7010 -0.3698 -0.0109
 1505SOL    HW1 4571   1.903   2.589   4.844 -2.4483  1.5611  1.2088
 1505SOL    HW2 4572   1.817   2.469   4.812  2.1553 -1.5801 -0.5782
 1506SOL     OW 4573   3.106   3.363   1.238  0.3077 -0.1784  0.3405
 1506SOL    HW1 4574   3.144   3.341   1.322  0.6077  0.3582  0.3506
 1506SOL    HW2 4575   3.170   3.333   1.173 -0.5658 -1.9193  0.2174
 1507SOL     OW 4576   4.811   3.120   1.236  0.3109  0.5324 -0.3191
 1507SOL    HW1 4577   4.831   3.051   1.173  0.2866  0.3589 -0.1382
 1507SOL    HW2 4578   4.874   3.190   1.216 -0.5593  1.0513 -1.4248
 1508SOL     OW 4579   3.771   2.346   1.280 -0.4314  0.1412 -0.0310
 1508SOL    HW1 4580   3.831   2.411   1.317  0.1223  0.0022 -0.6791
 1508SOL    HW2 4581   3.691   2.354   1.334 -0.1069  0.8390  0.3584
 1509SOL     OW 4582   1.638   2.949   2.850  0.6292  0.3983 -0.3017
 1509SOL    HW1 4583   1.583   3.025   2.832  0.2432  0.0655 -0.5572
 1509SOL    HW2 4584   1.579   2.885   2.890  0.8068  0.0121 -0.6370
 1510SOL     OW 4585   0.259   4.394   3.380  0.0197  0.0154 -0.1252
 1510SOL    HW1 4586   0.200   4.409   3.306 -0.0313 -1.9083 -0.5109
 1510SOL    HW2 4587   0.245   4.303   3.404  1.8412 -0.0927  0.6804
 1511SOL     OW 4588   3.765   0.119   4.638  0.4595 -0.2073 -0.0706
 1511SOL    HW1 4589   3.798   0.086   4.555  1.0692 -2.4260  0.9794
 1511SOL    HW2 4590   3.827   0.187   4.663  1.5669 -1.0639 -0.3994
 1512SOL     OW 4591   2.107   3.160   4.565  0.2851 -0.7753  0.2123
 1512SOL    HW1 4592   2.104   3.256   4.560  0.4250 -0.8132 -3.5709
 1512SOL    HW2 4593   2.192   3.141   4.603 -0.5993  0.4828  3.1554
 1513SOL     OW 4594   2.049   1.598   2.322 -0.1578  0.7995 -0.1374
 1513SOL    HW1 4595   2.128   1.651   2.330 -1.1169  2.1732  0.5226
 1513SOL    HW2 4596   2.051   1.540   2.398  0.5615  0.3356 -0.5039
 1514SOL     OW 4597   1.576   2.698   1.705  0.1352 -0.1875 -0.6184
 1514SOL    HW1 4598   1.643   2.724   1.767  0.7483 -2.1587 -0.3850
 1514SOL    HW2 4599   1.562   2.775   1.650  1.0650  0.9152  0.6529
 1515SOL     OW 4600   2.457   3.656   2.100  0.1491  0.1758  0.5772
 1515SOL    HW1 4601   2.472   3.581   2.043  1.3999  0.8591 -0.0196
 1515SOL    HW2 4602   2.386   3.705   2.058  2.4649  1.8470 -1.6845
 1516SOL     OW 4603   1.481   4.834   2.712 -0.4494  0.7048 -0.3092
 1516SOL    HW1 4604   1.570   4.842   2.746 -0.0833 -1.2442 -0.6978
 1516SOL    HW2 4605   1.461   4.921   2.676  1.0821  1.3209  0.2394
 1517SOL     OW 4606   2.549   4.940   4.022  0.5065 -0.0412 -0.6863
 1517SOL    HW1 4607   2.548   4.916   4.115 -0.7208  0.8014 -0.4617
 1517SOL    HW2 4608   2.480   5.005   4.013  2.0369  1.5279 -1.7690
 1518SOL     OW 4609   1.214   1.206   0.416 -0.1850 -0.1245 -0.6742
 1518SOL    HW1 4610   1.129   1.169   0.392 -1.3301  0.8800  1.4745
 1518SOL    HW2 4611   1.198   1.250   0.500  2.3492  0.5659 -0.4589
 1519SOL     OW 4612   3.173   0.635   2.949 -0.2657 -0.1479 -0.0843
 1519SOL    HW1 4613   3.144   0.556   2.995  1.0089 -0.0771  0.9126
 1519SOL    HW2 4614   3.260   0.612   2.916 -0.8065  0.1006 -1.7723
 1520SOL     OW 4615   3.911   2.110   1.226  0.2550  0.5816  0.4154
 1520SOL    HW1 4616   3.874   2.105   1.138 -0.0021 -1.2726  0.5890
 1520SOL    HW2 4617   3.906   2.202   1.249 -0.8362  0.9163 -1.0220
 1521SOL     OW 4618   2.276   2.782   2.975 -0.6705 -0.8984 -0.0239
 1521SOL    HW1 4619   2.355   2.763   3.025 -1.4691 -0.0658  1.6170
 1521SOL    HW2 4620   2.205   2.743   3.025 -1.5422  0.3455 -0.2395
 1522SOL     OW 4621   0.363   4.129   2.873  0.2212 -0.4220  0.1051
 1522SOL    HW1 4622   0.294   4.176   2.827  0.2121 -0.4199  0.1208
 1522SOL    HW2 4623   0.395   4.191   2.939 -0.0591 -0.5720  0.3877
 1523SOL     OW 4624   1.072   4.949   3.777 -0.2241 -0.0696  0.5397
 1523SOL    HW1 4625   1.048   4.867   3.734 -1.2515 -0.9149  2.5304
 1523SOL    HW2 4626   1.033   5.018   3.723 -0.2061 -0.9618 -0.6300
 1524SOL     OW 4627   4.691   3.873   3.045 -0.1680  0.2418 -0.5644
 1524SOL    HW1 4628   4.618   3.842   2.992  0.1688 -1.0338 -0.3217
 1524SOL    HW2 4629   4.758   3.899   2.982 -0.2808  0.0244 -0.7734
 1525SOL     OW 4630   4.905   0.884   3.013 -0.3386  0.5170  0.7697
 1525SOL    HW1 4631   4.959   0.883   2.933 -1.7124  0.2058 -0.1865
 1525SOL    HW2 4632   4.841   0.815   2.999 -2.5333  2.4502  0.7766
 1526SOL     OW 4633   2.132   0.198   4.272  0.0329  0.8912  0.2537
 1526SOL    HW1 4634   2.179   0.140   4.331  2.8393  1.4310 -1.2969
 1526SOL    HW2 4635   2.108   0.273   4.327  0.1390  0.1757  1.3019
 1527SOL     OW 4636   1.070   0.612   3.519 -0.5309 -0.2425 -0.1166
 1527SOL    HW1 4637   1.070   0.704   3.545 -2.7232 -0.6052  1.4387
 1527SOL    HW2 4638   1.056   0.564   3.600 -0.8555 -1.8743 -1.0937
 1528SOL     OW 4639   3.968   2.653   0.258 -0.4212  0.3697  0.0192
 1528SOL    HW1 4640   3.901   2.594   0.293 -0.2102 -0.6351 -1.1968
 1528SOL    HW2 4641   4.039   2.596   0.230 -0.3305  1.1509 -1.4662
 1529SOL     OW 4642   3.956   2.782   2.819  0.1683 -0.0715  0.2090
 1529SOL    HW1 4643   3.971   2.831   2.900 -0.4557  0.9151 -0.2533
 1529SOL    HW2 4644   3.990   2.840   2.750  1.8145 -1.4047 -0.1692
 1530SOL     OW 4645   1.321   3.512   1.389  0.5076 -0.0359 -0.3786
 1530SOL    HW1 4646   1.252   3.473   1.442  1.8683 -1.7525  0.2290
 1530SOL    HW2 4647   1.402   3.488   1.434  1.5766  0.6149 -1.8763
 1531SOL     OW 4648   4.682   1.527   3.806  0.3128  0.2594  0.2342
 1531SOL    HW1 4649   4.704   1.463   3.739 -1.2119 -1.0362  0.8869
 1531SOL    HW2 4650   4.764   1.572   3.825  0.9719  0.0148 -1.7925
 1532SOL     OW 4651   0.000   3.908   4.222  0.4350  0.4156  0.1089
 1532SOL    HW1 4652  -0.073   3.849   4.205  0.2348  0.4712  0.7747
 1532SOL    HW2 4653   0.078   3.853   4.215  0.2456  0.0413  0.8324
 1533SOL     OW 4654   1.866   4.016   1.057 -0.3432 -0.2210  0.6566
 1533SOL    HW1 4655   1.837   3.998   0.968  1.5764  0.7389 -0.2248
 1533SOL    HW2 4656   1.876   3.929   1.097  0.8844 -0.8054 -0.8147
 1534SOL     OW 4657   4.436   1.429   3.835 -0.3308 -0.4255 -0.6496
 1534SOL    HW1 4658   4.527   1.458   3.829 -0.4232 -0.5086 -3.3698
 1534SOL    HW2 4659   4.388   1.488   3.776 -2.2054  0.0351  1.1989
 1535SOL     OW 4660   2.010   3.362   3.390  0.3566 -0.4367 -0.8188
 1535SOL    HW1 4661   1.920   3.340   3.365  0.1416  0.8064 -1.2203
 1535SOL    HW2 4662   2.028   3.444   3.345  0.6840  0.8523  1.4846
 1536SOL     OW 4663   0.588   1.175   1.670  0.4490  0.2954  0.6717
 1536SOL    HW1 4664   0.575   1.264   1.635  1.3808  0.6992  1.3105
 1536SOL    HW2 4665   0.660   1.140   1.617  0.6176  0.2178  0.9535
 1537SOL     OW 4666   3.711   0.802   0.793 -0.1377 -0.0113  0.4128
 1537SOL    HW1 4667   3.646   0.780   0.726  1.3158  0.5954 -1.2790
 1537SOL    HW2 4668   3.764   0.870   0.753  1.7008 -0.6558  1.6399
 1538SOL     OW 4669   2.095   2.195   1.751  0.1876 -0.2935  0.0541
 1538SOL    HW1 4670   2.026   2.240   1.703 -0.8807 -0.6263  1.2049
 1538SOL    HW2 4671   2.084   2.103   1.727  1.1604 -0.1879 -0.8501
 1539SOL     OW 4672   0.666   4.291   2.560  0.2556 -0.3162  0.1966
 1539SOL    HW1 4673   0.707   4.267   2.644  1.5159  0.6232 -0.1092
 1539SOL    HW2 4674   0.665   4.210   2.510  2.2936 -0.2836  0.0270
 1540SOL     OW 4675   4.379   4.854   1.376  0.1476 -0.2971  0.2156
 1540SOL    HW1 4676   4.435   4.802   1.319 -0.6424  0.1540 -1.0050
 1540SOL    HW2 4677   4.411   4.835   1.464  0.5618 -2.0215 -0.2607
 1541SOL     OW 4678   4.057   4.308   2.982 -0.0771  0.3637 -0.8171
 1541SOL    HW1 4679   4.023   4.221   3.003  0.0057  0.5109 -0.0800
 1541SOL    HW2 4680   4.127   4.291   2.919 -1.3305  0.0349 -2.1842
 1542SOL     OW 4681   4.440   3.403   1.832  0.1328  0.0781  0.6745
 1542SOL    HW1 4682   4.444   3.465   1.905 -0.7916 -0.5729  1.2978
 1542SOL    HW2 4683   4.428   3.458   1.755  0.5326  0.7424  1.0705
 1543SOL     OW 4684   4.467   1.219   0.103 -0.7890  0.2686  0.1770
 1543SOL    HW1 4685   4.548   1.186   0.065 -0.5978 -0.6434  1.2962
 1543SOL    HW2 4686   4.458   1.308   0.070 -0.1201 -0.1347 -1.1420
 1544SOL     OW 4687   4.072   0.302   3.592  0.4876  0.5227 -0.2878
 1544SOL    HW1 4688   4.151   0.250   3.591  0.6951  0.7945  0.7618
 1544SOL    HW2 4689   4.102   0.392   3.606 -0.0726  0.3714  2.5697
 1545SOL     OW 4690   0.363   0.949   4.026 -0.2108 -0.2045  0.3826
 1545SOL    HW1 4691   0.284   0.998   4.004 -0.1351 -0.1435  0.2455
 1545SOL    HW2 4692   0.408   1.002   4.092 -0.9288 -0.8553  1.4152
 1546SOL     OW 4693   3.960   3.683   1.829 -0.1214  0.0694  0.9044
 1546SOL    HW1 4694   3.885   3.672   1.770  1.3526  1.0316 -1.2785
 1546SOL    HW2 4695   3.920   3.702   1.914 -2.3612  0.5595 -0.1709
 1547SOL     OW 4696   1.911   3.701   2.585  0.4976  0.3357  0.6315
 1547SOL    HW1 4697   1.900   3.635   2.653 -1.6173 -0.6646 -0.5896
 1547SOL    HW2 4698   1.861   3.668   2.510  0.9613  2.4054 -0.6866
 1548SOL     OW 4699   1.486   1.141   4.652  0.3985 -0.0397 -0.2446
 1548SOL    HW1 4700   1.580   1.158   4.655  0.4187  0.5997 -2.6241
 1548SOL    HW2 4701   1.446   1.225   4.673  0.3607 -0.1475  0.1190
 1549SOL     OW 4702   3.589   1.569   4.628  0.0532  0.1519  0.1332
 1549SOL    HW1 4703   3.607   1.657   4.597  0.3574  0.4373  1.0842
 1549SOL    HW2 4704   3.668   1.519   4.607  0.8149  0.6710  1.5929
 1550SOL     OW 4705   3.674   0.017   4.339  0.0329  0.7634  0.1195
 1550SOL    HW1 4706   3.674   0.061   4.254  0.9118 -2.1862 -1.5690
 1550SOL    HW2 4707   3.636  -0.069   4.321  0.1236  0.0884  2.7719
 1551SOL     OW 4708   1.840   2.911   4.000  0.1510 -0.3667  0.3614
 1551SOL    HW1 4709   1.922   2.957   4.019  0.7958 -1.6776  0.8855
 1551SOL    HW2 4710   1.773   2.980   3.999  1.2051  0.6757  0.2581
 1552SOL     OW 4711   1.127   2.334   4.749  0.0405 -0.1507  0.0016
 1552SOL    HW1 4712   1.060   2.284   4.702 -1.2145  1.1917  0.2693
 1552SOL    HW2 4713   1.139   2.414   4.697 -2.1897  1.9102  2.3217
 1553SOL     OW 4714   4.378   4.149   0.551 -0.0488 -0.4151 -0.1446
 1553SOL    HW1 4715   4.355   4.206   0.624  2.1483  0.8984 -0.3803
 1553SOL    HW2 4716   4.305   4.158   0.490 -0.3084  1.2722  0.3624
 1554SOL     OW 4717   4.624   3.071   1.409  0.0319  0.1828  0.1733
 1554SOL    HW1 4718   4.595   2.980   1.416 -1.5986  0.1259 -4.2618
 1554SOL    HW2 4719   4.702   3.066   1.353  0.0703  1.4911  0.0949
 1555SOL     OW 4720   3.917   4.443   1.810 -0.1358  0.4596 -0.1018
 1555SOL    HW1 4721   3.880   4.467   1.895  0.3984 -0.0319  0.2756
 1555SOL    HW2 4722   3.925   4.348   1.814 -0.8247  0.3567 -1.0029
 1556SOL     OW 4723   0.279   3.335   4.689 -0.1389  0.5685  0.0419
 1556SOL    HW1 4724   0.286   3.352   4.596  0.3217  0.4407  0.0476
 1556SOL    HW2 4725   0.266   3.240   4.695  1.5473  0.3034  0.1540
 1557SOL     OW 4726   2.269   1.835   2.703  0.2968 -0.0786  0.4293
 1557SOL    HW1 4727   2.198   1.775   2.725  0.0956  0.4703  1.3273
 1557SOL    HW2 4728   2.267   1.901   2.772  1.4032  0.1916  0.2177
 1558SOL     OW 4729   3.748   4.631   0.805 -0.1714 -0.0165  0.0828
 1558SOL    HW1 4730   3.783   4.671   0.726  1.8368  1.0468  1.4127
 1558SOL    HW2 4731   3.666   4.679   0.821  0.1093  0.7195 -0.5988
 1559SOL     OW 4732   0.509   0.275   2.429  0.4742  0.2294 -0.6100
 1559SOL    HW1 4733   0.513   0.363   2.392  2.2447 -0.8371 -3.1987
 1559SOL    HW2 4734   0.417   0.250   2.422  0.3272  1.0541 -1.9488
 1560SOL     OW 4735   1.580   4.908   4.782  0.5263 -0.5226  0.6982
 1560SOL    HW1 4736   1.595   4.888   4.875  0.9050  0.6214  0.8995
 1560SOL    HW2 4737   1.487   4.929   4.777  0.8355  1.0895  1.1694
 1561SOL     OW 4738   1.781   3.185   4.441  0.1982  0.1823  0.3211
 1561SOL    HW1 4739   1.704   3.154   4.393  0.4773 -1.4424  0.8548
 1561SOL    HW2 4740   1.745   3.240   4.511 -0.2904  1.4574 -0.8895
 1562SOL     OW 4741   1.458   4.271   3.596  0.0838 -0.4953 -0.2942
 1562SOL    HW1 4742   1.515   4.196   3.616  1.0116  0.2388 -0.0986
 1562SOL    HW2 4743   1.455   4.321   3.677  2.1285  1.3787 -1.2751
 1563SOL     OW 4744   4.397   2.898   1.216 -0.1654  0.5013 -0.6733
 1563SOL    HW1 4745   4.458   2.937   1.153  0.8611  1.3092  0.7653
 1563SOL    HW2 4746   4.368   2.972   1.270  1.6420 -0.5823  1.9952
 1564SOL     OW 4747   4.633   0.976   1.151 -0.2969  0.2083 -0.1986
 1564SOL    HW1 4748   4.679   1.050   1.189 -0.7639  0.2635  0.2795
 1564SOL    HW2 4749   4.542   1.005   1.145 -1.1138 -1.3182  2.8137
 1565SOL     OW 4750   0.665   1.152   2.747  0.0651  0.7580 -0.2665
 1565SOL    HW1 4751   0.738   1.139   2.807  1.6008 -1.0265 -2.3958
 1565SOL    HW2 4752   0.657   1.069   2.700 -2.9124  1.1232 -0.6154
 1566SOL     OW 4753   4.036   4.046   2.917  0.1666  0.2341 -0.1417
 1566SOL    HW1 4754   4.070   3.995   2.991  0.9559  0.9131 -0.0228
 1566SOL    HW2 4755   4.071   4.001   2.840 -1.7293 -1.2606 -0.2026
 1567SOL     OW 4756   4.084   2.225   3.262  0.4443  0.0369  0.1350
 1567SOL    HW1 4757   4.057   2.135   3.279 -3.1119  0.6829 -1.2795
 1567SOL    HW2 4758   4.129   2.252   3.342 -3.1368 -1.3789  2.8807
 1568SOL     OW 4759   1.027   3.157   0.038  0.1726  0.8492  0.6237
 1568SOL    HW1 4760   1.084   3.083   0.020 -0.3319  0.4735  0.5342
 1568SOL    HW2 4761   0.995   3.141   0.127 -2.2858 -0.6666 -0.4197
 1569SOL     OW 4762   0.173   2.443   4.380  0.6070 -0.6681  0.2686
 1569SOL    HW1 4763   0.213   2.529   4.393 -1.4370  0.5066 -0.7785
 1569SOL    HW2 4764   0.088   2.461   4.340 -0.7709 -3.0693  1.8464
 1570SOL     OW 4765   2.379   0.570   3.403  0.1500 -0.2529 -0.5008
 1570SOL    HW1 4766   2.447   0.593   3.466 -1.2165 -0.9097  1.2920
 1570SOL    HW2 4767   2.420   0.584   3.317  2.6584 -0.9920  0.4805
 1571SOL     OW 4768  -0.007   2.622   3.545 -0.3206  0.3237  0.4086
 1571SOL    HW1 4769   0.046   2.543   3.552 -1.8059 -0.8897 -1.2274
 1571SOL    HW2 4770  -0.011   2.656   3.635  0.6056 -1.2694  1.0942
 1572SOL     OW 4771   4.640   4.125   4.199 -0.2724 -0.0143  0.0431
 1572SOL    HW1 4772   4.657   4.090   4.112 -0.5371 -0.7257  0.2688
 1572SOL    HW2 4773   4.550   4.098   4.219 -1.4035  2.8266 -0.7252
 1573SOL     OW 4774   0.243   4.390   4.298 -0.1844  0.2122  0.0156
 1573SOL    HW1 4775   0.255   4.426   4.210 -0.6290 -0.7329 -0.4526
 1573SOL    HW2 4776   0.237   4.295   4.284  0.0658  0.0211  1.1072
 1574SOL     OW 4777   4.174   4.754   3.703 -0.0398 -0.0787 -0.3130
 1574SOL    HW1 4778   4.213   4.838   3.723 -1.5364  0.6956 -0.4733
 1574SOL    HW2 4779   4.082   4.774   3.684 -0.8763 -1.9401  1.3796
 1575SOL     OW 4780   2.078   1.479   2.609 -0.0235 -0.1168 -0.4214
 1575SOL    HW1 4781   2.033   1.556   2.643 -0.1628 -0.2560 -0.2902
 1575SOL    HW2 4782   2.020   1.406   2.630 -0.1598 -0.1956 -1.0372
 1576SOL     OW 4783   2.881   2.360   3.822 -0.2806 -0.3658  0.9163
 1576SOL    HW1 4784   2.827   2.434   3.849 -0.9291 -0.7456  0.6911
 1576SOL    HW2 4785   2.866   2.354   3.727 -1.0688 -1.4318  1.0921
 1577SOL     OW 4786   1.877   4.568   2.068 -0.0376  0.1923  0.2003
 1577SOL    HW1 4787   1.933   4.625   2.122  0.2133 -0.6674  0.8684
 1577SOL    HW2 4788   1.870   4.487   2.118  1.2900 -1.1501 -1.6224
 1578SOL     OW 4789   3.630   4.337   2.398  0.7153 -0.1523  0.5175
 1578SOL    HW1 4790   3.644   4.246   2.424  1.9414 -0.1880 -0.1814
 1578SOL    HW2 4791   3.641   4.387   2.479 -0.3906 -0.6542  0.9853
 1579SOL     OW 4792   3.234   1.262   3.953 -0.0720  0.3598 -0.1230
 1579SOL    HW1 4793   3.279   1.236   4.033  2.7074  1.7134 -1.0963
 1579SOL    HW2 4794   3.237   1.185   3.896 -0.8333 -0.1735  0.5358
 1580SOL     OW 4795   3.012   0.507   4.641 -0.7171  0.1541  0.3120
 1580SOL    HW1 4796   3.027   0.487   4.734  1.9334  0.3425 -0.0070
 1580SOL    HW2 4797   3.032   0.600   4.633 -0.1398 -0.0412 -0.5845
 1581SOL     OW 4798   1.159   4.301   1.288  0.3401 -0.2485 -0.2760
 1581SOL    HW1 4799   1.226   4.272   1.351  0.0213 -0.0540  0.1585
 1581SOL    HW2 4800   1.117   4.220   1.260  1.6070 -0.5110 -1.5502
 1582SOL     OW 4801   0.203   2.857   4.819 -0.1685  0.2557  0.6322
 1582SOL    HW1 4802   0.197   2.778   4.765  1.6840  0.7931 -0.4563
 1582SOL    HW2 4803   0.130   2.850   4.881 -0.7269 -1.7259 -0.1838
 1583SOL     OW 4804   2.319   0.509   3.959 -0.1558 -0.2051  0.6086
 1583SOL    HW1 4805   2.320   0.507   4.055 -0.6662 -2.7339  0.6207
 1583SOL    HW2 4806   2.402   0.468   3.934 -0.5512 -0.6361 -0.0081
 1584SOL     OW 4807   1.728   4.448   4.044 -0.5660 -0.5248  0.1996
 1584SOL    HW1 4808   1.718   4.541   4.028  0.3498 -0.5738 -0.7675
 1584SOL    HW2 4809   1.769   4.443   4.131  2.4140  0.1743 -1.0350
 1585SOL     OW 4810   0.471   1.963   3.264 -0.2578  0.8290  1.1524
 1585SOL    HW1 4811   0.510   1.897   3.207  1.5551  1.7649  1.2318
 1585SOL    HW2 4812   0.420   2.019   3.206 -0.9493 -0.0168  0.9324
 1586SOL     OW 4813   0.655   2.298   1.198 -0.3293  0.5283  0.0467
 1586SOL    HW1 4814   0.748   2.285   1.177 -0.5000 -1.3122  0.2264
 1586SOL    HW2 4815   0.610   2.295   1.114 -0.4135 -0.7963  0.1137
 1587SOL     OW 4816   1.799   0.151   1.871 -0.0276 -0.2049 -0.1956
 1587SOL    HW1 4817   1.875   0.184   1.825  1.2012 -1.8563  0.5432
 1587SOL    HW2 4818   1.805   0.056   1.863 -2.0441 -0.3867 -0.1482
 1588SOL     OW 4819   4.391   2.145   0.213 -0.3629  0.0192  0.4526
 1588SOL    HW1 4820   4.304   2.153   0.174  0.7041  0.6537 -1.9568
 1588SOL    HW2 4821   4.451   2.157   0.140  1.7736 -3.2897  1.4795
 1589SOL     OW 4822   0.966   0.522   1.156  0.5023  0.3260  0.0268
 1589SOL    HW1 4823   0.901   0.470   1.204  3.0264 -1.7060  1.4800
 1589SOL    HW2 4824   1.015   0.567   1.225  1.4150  0.8270 -0.9324
 1590SOL     OW 4825   0.109   3.315   3.158  0.0736 -0.5785 -0.2782
 1590SOL    HW1 4826   0.119   3.354   3.071  1.2578  2.4543  1.0646
 1590SOL    HW2 4827   0.065   3.383   3.209  1.6942 -1.1808  2.0921
 1591SOL     OW 4828   4.005   3.427   4.953 -0.3304 -0.1201  0.2587
 1591SOL    HW1 4829   3.999   3.432   5.048 -2.8716 -1.2109  0.2212
 1591SOL    HW2 4830   3.979   3.514   4.922  1.2131  0.4752  0.5010
 1592SOL     OW 4831   3.531   4.868   0.587  0.2915 -0.4156 -0.1850
 1592SOL    HW1 4832   3.623   4.891   0.575 -0.2838  2.7808  0.7624
 1592SOL    HW2 4833   3.525   4.837   0.677  0.8586 -3.7648 -1.1361
 1593SOL     OW 4834   3.376   2.971   1.803 -0.4229  0.0288 -0.2366
 1593SOL    HW1 4835   3.328   3.007   1.878  1.2757  0.7288  0.5730
 1593SOL    HW2 4836   3.445   2.917   1.842  0.7236  0.7024 -1.2555
 1594SOL     OW 4837   4.302   0.809   0.308 -0.2143 -0.5332  0.2703
 1594SOL    HW1 4838   4.279   0.842   0.221  0.8986 -2.1429 -0.6994
 1594SOL    HW2 4839   4.221   0.772   0.342 -0.8183  0.7060  0.2106
 1595SOL     OW 4840   2.109   3.309   2.406 -0.4559  0.5010  0.0139
 1595SOL    HW1 4841   2.123   3.225   2.364  1.1694  1.8434 -2.4044
 1595SOL    HW2 4842   2.021   3.336   2.378 -0.3451  0.3008 -0.5482
 1596SOL     OW 4843   2.108   3.943   0.777  0.1449  0.4084  0.4926
 1596SOL    HW1 4844   2.187   3.926   0.829 -1.7380  0.4186  3.6022
 1596SOL    HW2 4845   2.094   4.037   0.787  0.2305  0.5699 -0.8368
 1597SOL     OW 4846   4.519   1.163   2.868 -0.0329 -0.0368  0.1677
 1597SOL    HW1 4847   4.577   1.214   2.924  2.0273 -1.9230 -0.1163
 1597SOL    HW2 4848   4.529   1.201   2.781  1.1978 -0.6140  0.0334
 1598SOL     OW 4849   3.063   4.404   3.081  0.1596 -0.0688 -0.4777
 1598SOL    HW1 4850   3.009   4.326   3.079  1.5020 -1.0347 -0.1740
 1598SOL    HW2 4851   3.146   4.376   3.120  0.0673  1.8977  1.3672
 1599SOL     OW 4852   3.175   3.540   3.153  0.1639  0.3041 -0.0504
 1599SOL    HW1 4853   3.161   3.626   3.194 -0.7774  0.0412  0.2137
 1599SOL    HW2 4854   3.269   3.537   3.135  0.3062  1.1503  0.4727
 1600SOL     OW 4855   3.506   3.412   0.387 -0.4173  0.0743  0.2992
 1600SOL    HW1 4856   3.571   3.468   0.346 -2.0764  1.0993 -1.0776
 1600SOL    HW2 4857   3.555   3.336   0.417  1.0561 -0.6141 -3.3011
 1601SOL     OW 4858   2.535   4.971   2.001 -0.1073  0.1999 -0.4844
 1601SOL    HW1 4859   2.516   4.897   2.060  0.8480 -0.1627 -0.6155
 1601SOL    HW2 4860   2.545   5.046   2.059  0.7722 -0.1433 -0.1701
 1602SOL     OW 4861   4.938   4.593   2.514 -0.2095 -0.1371 -0.3698
 1602SOL    HW1 4862   5.007   4.527   2.518 -0.6793 -0.5823  1.1154
 1602SOL    HW2 4863   4.880   4.563   2.444  1.2824  0.4733 -1.9448
 1603SOL     OW 4864   2.800   0.907   1.298  0.5459  0.3907 -0.1860
 1603SOL    HW1 4865   2.869   0.941   1.354  2.0659  1.7313 -2.6930
 1603SOL    HW2 4866   2.728   0.887   1.358  1.0839  4.0824  1.9719
 1604SOL     OW 4867   3.451   1.826   4.755 -0.1188  0.5174  0.2998
 1604SOL    HW1 4868   3.518   1.809   4.821 -0.6950  0.4257  0.8665
 1604SOL    HW2 4869   3.488   1.896   4.701  0.6137  0.1746  0.3398
 1605SOL     OW 4870   3.210   2.663   1.327  0.0007 -0.4692  0.5160
 1605SOL    HW1 4871   3.193   2.735   1.388 -0.7058 -0.7945  0.7082
 1605SOL    HW2 4872   3.187   2.584   1.375 -1.4696 -0.6762 -0.4669
 1606SOL     OW 4873   1.868   1.594   1.608 -0.1340  0.3730 -0.4529
 1606SOL    HW1 4874   1.857   1.515   1.554 -0.3700 -0.3049  0.5531
 1606SOL    HW2 4875   1.963   1.606   1.613 -0.0468 -0.5536  0.3577
 1607SOL     OW 4876   3.624   0.791   2.286 -0.1366  0.4402  0.2246
 1607SOL    HW1 4877   3.593   0.752   2.204 -1.5043 -0.0064  0.9228
 1607SOL    HW2 4878   3.546   0.799   2.340  1.0369 -1.5979  2.4366
 1608SOL     OW 4879   1.743   1.767   4.282 -0.6635  0.2157  0.9366
 1608SOL    HW1 4880   1.750   1.798   4.372 -0.6560  1.0067  0.6655
 1608SOL    HW2 4881   1.652   1.784   4.258 -0.9206 -0.8535  1.0989
 1609SOL     OW 4882   4.895   4.335   2.986  0.2127 -0.2530 -0.4138
 1609SOL    HW1 4883   4.837   4.412   2.988  0.6925  0.1917  2.8328
 1609SOL    HW2 4884   4.901   4.311   2.894 -2.5078  1.6675 -1.2124
 1610SOL     OW 4885   3.693   0.783   2.756 -0.1784 -0.4310 -0.5702
 1610SOL    HW1 4886   3.745   0.853   2.796  0.0273 -0.2693 -1.1170
 1610SOL    HW2 4887   3.707   0.707   2.813 -0.5318  0.0108  0.1206
 1611SOL     OW 4888   3.026   0.101   2.050 -0.1179 -0.2426  0.3863
 1611SOL    HW1 4889   3.023   0.189   2.087 -1.9713  0.1585 -0.6419
 1611SOL    HW2 4890   3.103   0.102   1.994 -0.3346  0.8615  0.0781
 1612SOL     OW 4891   4.655   0.246   4.407 -0.0772 -0.9514 -0.1651
 1612SOL    HW1 4892   4.694   0.301   4.339 -1.1744 -0.5512 -0.4821
 1612SOL    HW2 4893   4.727   0.229   4.468  0.5195  0.0147 -0.5785
 1613SOL     OW 4894   2.390   3.734   4.208  0.4702 -0.3968 -0.2090
 1613SOL    HW1 4895   2.461   3.672   4.199  1.0188 -0.3321  2.7150
 1613SOL    HW2 4896   2.409   3.802   4.143  2.3040 -1.0739 -0.4394
 1614SOL     OW 4897   3.020   2.586   2.868 -0.2804  0.6401 -0.2904
 1614SOL    HW1 4898   3.036   2.508   2.815  4.7530  0.8900  0.3088
 1614SOL    HW2 4899   2.985   2.650   2.807 -2.9077 -1.4699 -1.1742
 1615SOL     OW 4900   1.824   1.641   3.326  0.1504 -0.3490  0.4825
 1615SOL    HW1 4901   1.833   1.546   3.338  0.8203 -0.2884  0.4855
 1615SOL    HW2 4902   1.760   1.667   3.393 -1.3105 -1.0320 -0.5736
 1616SOL     OW 4903   3.218   4.690   1.403  0.0264  0.3085  0.1966
 1616SOL    HW1 4904   3.144   4.637   1.374  0.1566 -0.8881  1.9019
 1616SOL    HW2 4905   3.295   4.639   1.379  0.2263  0.5549  0.3074
 1617SOL     OW 4906   0.396   4.001   0.476 -0.1146 -0.7884 -0.3680
 1617SOL    HW1 4907   0.323   3.972   0.531 -0.8699  0.0543 -0.8960
 1617SOL    HW2 4908   0.473   3.993   0.532 -1.0704  1.9056  1.5439
 1618SOL     OW 4909   3.104   1.941   0.164  0.6112  0.3580 -0.1938
 1618SOL    HW1 4910   3.093   1.847   0.183  1.0765  0.3841  0.2209
 1618SOL    HW2 4911   3.111   1.982   0.250  1.2323  0.6671 -0.3823
 1619SOL     OW 4912   4.454   3.675   4.555 -0.1497  0.7841  0.3413
 1619SOL    HW1 4913   4.531   3.657   4.609 -0.2092  1.1935  0.5639
 1619SOL    HW2 4914   4.463   3.767   4.531 -0.8470  0.9807  0.8172
 1620SOL     OW 4915   4.285   2.792   4.633 -0.1718  0.6279  0.2754
 1620SOL    HW1 4916   4.369   2.788   4.586 -0.3898 -0.1663 -0.0661
 1620SOL    HW2 4917   4.235   2.858   4.587 -0.0681  0.4589 -0.0803
 1621SOL     OW 4918   3.504   4.130   0.131  0.1102  1.3032  0.0816
 1621SOL    HW1 4919   3.499   4.191   0.057 -0.1408  0.9017 -0.2415
 1621SOL    HW2 4920   3.559   4.058   0.099 -0.4796  0.8459  0.0762
 1622SOL     OW 4921   2.116   4.513   4.648  0.5067 -0.2386  0.3648
 1622SOL    HW1 4922   2.066   4.434   4.627 -0.9185 -0.2169  3.1598
 1622SOL    HW2 4923   2.050   4.576   4.678  1.8994  0.9433  1.0795
 1623SOL     OW 4924   4.752   1.912   1.616  0.2739 -0.3504 -0.2626
 1623SOL    HW1 4925   4.841   1.911   1.583  0.9032  1.5535  1.1893
 1623SOL    HW2 4926   4.702   1.960   1.550  0.9922  1.2190  0.2815
 1624SOL     OW 4927   4.063   4.292   2.200  0.0552 -0.3258 -0.3597
 1624SOL    HW1 4928   4.097   4.268   2.113  0.9861 -0.0041 -0.0948
 1624SOL    HW2 4929   3.979   4.333   2.181 -1.1176 -2.7868 -0.9016
 1625SOL     OW 4930   2.401   1.668   1.573  0.1027  0.1683 -0.1171
 1625SOL    HW1 4931   2.425   1.751   1.531  1.3185 -0.6414 -1.1028
 1625SOL    HW2 4932   2.484   1.636   1.610  0.0164 -1.4110 -1.2260
 1626SOL     OW 4933   4.020   1.670   0.404 -0.2441 -0.2186  0.2311
 1626SOL    HW1 4934   4.050   1.742   0.349 -0.4185 -0.1556  0.2199
 1626SOL    HW2 4935   3.931   1.651   0.373 -0.0581 -0.6928 -0.0284
 1627SOL     OW 4936   0.337   2.920   3.296  0.3017 -0.6401  0.4977
 1627SOL    HW1 4937   0.256   2.880   3.328 -0.2002  0.4311  0.6007
 1627SOL    HW2 4938   0.351   2.880   3.210 -1.5132  0.6696 -0.4923
 1628SOL     OW 4939   3.395   4.121   1.554 -0.3633  0.2725 -0.0210
 1628SOL    HW1 4940   3.321   4.078   1.511  1.0705 -1.5731 -0.7747
 1628SOL    HW2 4941   3.373   4.119   1.647 -0.5902 -1.6919 -0.0721
 1629SOL     OW 4942   2.756   2.843   0.566 -0.0149 -0.2438  0.1352
 1629SOL    HW1 4943   2.670   2.877   0.544 -0.3468 -0.9114  0.3717
 1629SOL    HW2 4944   2.815   2.917   0.553 -0.7703  0.5584  1.1222
 1630SOL     OW 4945   1.279   3.695   4.623 -0.1697  0.1646  0.5508
 1630SOL    HW1 4946   1.277   3.709   4.529 -2.8295  3.2252  0.9047
 1630SOL    HW2 4947   1.348   3.754   4.655 -0.0529 -0.0176  0.6388
 1631SOL     OW 4948   4.390   1.481   2.216 -0.3859 -0.3619  0.1834
 1631SOL    HW1 4949   4.442   1.402   2.228  0.3224  0.0598 -0.0437
 1631SOL    HW2 4950   4.418   1.540   2.286  0.8805  0.5991 -1.0874
 1632SOL     OW 4951   1.647   4.780   1.020 -0.0627 -0.2583  0.6844
 1632SOL    HW1 4952   1.578   4.770   0.955 -0.4582  0.3964  0.9895
 1632SOL    HW2 4953   1.701   4.701   1.012 -0.5450 -0.5249  0.0866
 1633SOL     OW 4954   4.728   1.109   0.842 -0.7865  0.4769 -0.3957
 1633SOL    HW1 4955   4.723   1.139   0.933  1.2392  0.5923 -0.2814
 1633SOL    HW2 4956   4.786   1.172   0.800 -1.7094  0.4238 -1.7920
 1634SOL     OW 4957   2.194   3.442   3.017 -0.8903  0.1489 -0.2068
 1634SOL    HW1 4958   2.141   3.485   3.084  0.5270 -0.3638  1.2938
 1634SOL    HW2 4959   2.208   3.510   2.950  0.0911  1.6103  1.4124
 1635SOL     OW 4960   0.678   0.732   1.908 -0.1371  0.1113  0.2830
 1635SOL    HW1 4961   0.707   0.803   1.965 -0.8490 -0.0794  0.8916
 1635SOL    HW2 4962   0.639   0.776   1.833 -1.0419  0.3777  0.8963
 1636SOL     OW 4963   4.714   2.295   3.082 -0.3374  0.5618 -0.7205
 1636SOL    HW1 4964   4.658   2.368   3.057 -1.7601 -0.3020 -0.2024
 1636SOL    HW2 4965   4.729   2.307   3.176 -1.0829 -0.1154 -0.5032
 1637SOL     OW 4966   1.526   1.581   1.246 -0.1712 -0.3906  0.2191
 1637SOL    HW1 4967   1.487   1.545   1.325 -1.1685  0.1932  0.0090
 1637SOL    HW2 4968   1.610   1.618   1.275 -0.7776  0.3202  1.1253
 1638SOL     OW 4969   3.089   2.968   0.551  0.3440  0.1589  0.6899
 1638SOL    HW1 4970   3.174   3.012   0.548  0.2115  0.4193  0.7459
 1638SOL    HW2 4971   3.028   3.031   0.514  0.7552 -1.4443 -3.1996
 1639SOL     OW 4972   3.069   1.436   1.869 -0.5689  0.5417 -0.0232
 1639SOL    HW1 4973   3.164   1.448   1.865 -0.6819  2.3897  1.6444
 1639SOL    HW2 4974   3.057   1.352   1.914  0.2449  0.3066 -0.2249
 1640SOL     OW 4975   0.520   4.843   3.385 -0.6292 -0.2997 -0.1882
 1640SOL    HW1 4976   0.579   4.840   3.310  1.0461 -0.6123  1.0805
 1640SOL    HW2 4977   0.509   4.937   3.402 -1.1142 -0.2236 -0.8800
 1641SOL     OW 4978   4.269   0.157   4.725 -0.1331  0.2439 -0.2137
 1641SOL    HW1 4979   4.264   0.181   4.817 -0.5049  1.4921 -0.5476
 1641SOL    HW2 4980   4.318   0.075   4.725 -0.4061  0.0576  1.1153
 1642SOL     OW 4981   4.865   4.862   3.620 -0.0416  0.5183 -0.8756
 1642SOL    HW1 4982   4.830   4.783   3.661 -0.3873  0.1894 -1.7960
 1642SOL    HW2 4983   4.924   4.830   3.552  1.2662  1.0651 -0.0541
 1643SOL     OW 4984   4.611   2.099   0.027 -0.0357 -0.6089  0.3151
 1643SOL    HW1 4985   4.617   2.184  -0.016  1.5524 -1.2123 -0.7301
 1643SOL    HW2 4986   4.694   2.055   0.007 -0.5140 -2.1273  1.4331
 1644SOL     OW 4987   0.246   3.679   1.119 -0.3121  0.0996 -0.1069
 1644SOL    HW1 4988   0.237   3.597   1.070  2.9381 -1.0877  1.0856
 1644SOL    HW2 4989   0.281   3.741   1.055  0.7112 -0.5024 -0.1472
 1645SOL     OW 4990   0.133   3.112   2.126  0.1466  0.0903 -0.0019
 1645SOL    HW1 4991   0.067   3.159   2.074  0.8101  0.8415 -0.1929
 1645SOL    HW2 4992   0.099   3.114   2.215  0.9639  2.5544  0.3410
 1646SOL     OW 4993   0.855   3.397   2.558 -0.4171  0.0878  0.2045
 1646SOL    HW1 4994   0.835   3.374   2.467 -1.1274 -0.2684  0.4447
 1646SOL    HW2 4995   0.792   3.466   2.579 -0.2105  0.2147  0.4160
 1647SOL     OW 4996   1.335   0.699   0.804 -0.0307 -0.2582 -0.8779
 1647SOL    HW1 4997   1.365   0.733   0.888  0.9420 -0.7490 -1.0143
 1647SOL    HW2 4998   1.298   0.614   0.825  0.4620 -0.5012 -0.9734
 1648SOL     OW 4999   4.505   2.710   2.339  0.4069  0.4638  0.2920
 1648SOL    HW1 5000   4.453   2.659   2.277  0.2530  0.7600  0.1771
 1648SOL    HW2 5001   4.443   2.771   2.379  0.4116 -0.0282  1.0735
 1649SOL     OW 5002   4.111   1.632   1.588 -0.0061 -0.1317  0.1991
 1649SOL    HW1 5003   4.106   1.693   1.661 -0.1262  0.8319 -0.5939
 1649SOL    HW2 5004   4.090   1.546   1.627 -3.2403  0.7701  0.7606
 1650SOL     OW 5005   3.624   1.440   0.976 -0.0766  0.6503 -0.2339
 1650SOL    HW1 5006   3.664   1.527   0.978  0.4899  0.3901  0.1277
 1650SOL    HW2 5007   3.667   1.396   0.903  0.0968  0.4673 -0.0246
 1651SOL     OW 5008   0.491   3.669   1.325 -0.1577 -0.2598 -0.2967
 1651SOL    HW1 5009   0.419   3.608   1.305 -0.2376 -0.1341 -0.3946
 1651SOL    HW2 5010   0.500   3.664   1.421  1.3522 -2.1334 -0.4813
 1652SOL     OW 5011   1.387   0.160   2.200 -0.7668  0.1421 -0.2607
 1652SOL    HW1 5012   1.417   0.082   2.153  0.5448  0.9281 -0.7689
 1652SOL    HW2 5013   1.314   0.193   2.148 -0.3916  0.0633 -0.8466
 1653SOL     OW 5014   4.673   0.722   1.139  0.5158  0.0734 -0.0573
 1653SOL    HW1 5015   4.602   0.688   1.085 -0.2895 -0.8795  1.5443
 1653SOL    HW2 5016   4.667   0.817   1.128 -1.7256  0.0930  0.8858
 1654SOL     OW 5017   1.512   2.518   0.302 -0.3900  0.0011  0.3242
 1654SOL    HW1 5018   1.423   2.549   0.284 -0.6375 -1.3215 -0.9123
 1654SOL    HW2 5019   1.542   2.572   0.374 -1.7685  1.2717 -0.0065
 1655SOL     OW 5020   1.620   0.944   2.291  0.1376  0.0457 -0.1003
 1655SOL    HW1 5021   1.662   0.861   2.314 -0.0404 -0.0580 -0.1422
 1655SOL    HW2 5022   1.571   0.924   2.211 -1.7340 -0.4159  1.0872
 1656SOL     OW 5023   4.289   2.434   1.899 -0.0223 -0.0350 -0.4809
 1656SOL    HW1 5024   4.360   2.371   1.887  0.2682  0.4940 -1.7206
 1656SOL    HW2 5025   4.212   2.380   1.917  0.4878 -0.6630 -0.1212
 1657SOL     OW 5026   4.931   1.978   4.430  0.0456 -0.6943 -0.2146
 1657SOL    HW1 5027   5.002   1.917   4.411  0.3568  0.3542 -2.7713
 1657SOL    HW2 5028   4.975   2.062   4.441 -0.5582 -0.5528  1.3478
 1658SOL     OW 5029   2.399   0.128   3.214 -0.8713  0.2082 -0.1062
 1658SOL    HW1 5030   2.402   0.143   3.120 -1.1290 -0.1233 -0.1697
 1658SOL    HW2 5031   2.465   0.187   3.250 -1.4425  1.0414 -0.3952
 1659SOL     OW 5032   3.123   2.070   1.307 -0.1419 -0.1537  0.8450
 1659SOL    HW1 5033   3.067   2.065   1.384 -0.3691 -0.0600  0.6868
 1659SOL    HW2 5034   3.064   2.052   1.233 -0.2611  1.3074  0.5503
 1660SOL     OW 5035   3.021   1.677   0.224  0.8990  0.0409 -0.6665
 1660SOL    HW1 5036   2.978   1.607   0.174  0.0307 -0.3585  0.5766
 1660SOL    HW2 5037   3.088   1.632   0.275 -0.8282 -0.2710  1.5084
 1661SOL     OW 5038   2.816   2.516   4.324 -0.4970  0.1180 -0.7704
 1661SOL    HW1 5039   2.763   2.478   4.254 -1.0056 -0.3163 -0.1658
 1661SOL    HW2 5040   2.752   2.546   4.388 -0.0192 -1.9500  0.7717
 1662SOL     OW 5041   1.380   0.607   4.173  0.1958  0.0706 -0.2761
 1662SOL    HW1 5042   1.351   0.698   4.169  1.4984  0.5285  0.1432
 1662SOL    HW2 5043   1.443   0.599   4.101 -0.4415 -0.7186 -0.7689
 1663SOL     OW 5044   3.052   4.192   3.997 -0.3764  0.0923 -0.1873
 1663SOL    HW1 5045   2.982   4.149   4.046 -0.4296 -0.2204 -0.5290
 1663SOL    HW2 5046   3.009   4.267   3.956 -0.6267 -0.3593 -0.7689
 1664SOL     OW 5047   2.432   0.943   1.266 -0.4882  0.0117 -0.4342
 1664SOL    HW1 5048   2.370   0.983   1.327 -0.4934  1.0843 -1.1186
 1664SOL    HW2 5049   2.465   1.016   1.214 -0.9933 -0.9615 -2.1980
 1665SOL     OW 5050   0.379   4.595   3.503  0.3153  0.6803  0.1910
 1665SOL    HW1 5051   0.335   4.528   3.450  0.3492  0.3189  0.6154
 1665SOL    HW2 5052   0.408   4.661   3.439 -1.1939  1.1412 -0.0862
 1666SOL     OW 5053   2.938   3.482   3.230  0.1508 -0.1541 -0.1419
 1666SOL    HW1 5054   3.028   3.507   3.208  0.3272  1.9740  2.3559
 1666SOL    HW2 5055   2.947   3.397   3.273  1.1118  0.3535  0.7141
 1667SOL     OW 5056   0.782   2.247   0.859  0.3946 -0.4227  0.5563
 1667SOL    HW1 5057   0.708   2.231   0.917 -0.1917 -1.5092 -0.4584
 1667SOL    HW2 5058   0.855   2.266   0.918  0.2106 -3.0133  1.7644
 1668SOL     OW 5059   3.494   4.605   0.473 -0.2079 -0.5116  0.4366
 1668SOL    HW1 5060   3.523   4.696   0.470 -0.8437 -0.3373 -0.7584
 1668SOL    HW2 5061   3.450   4.597   0.558  1.5205 -0.2522  1.4122
 1669SOL     OW 5062   2.270   3.236   2.727  0.4052 -0.4052 -0.3821
 1669SOL    HW1 5063   2.256   3.291   2.650  1.7394 -0.1686 -0.4849
 1669SOL    HW2 5064   2.183   3.224   2.765 -0.1704  0.0755 -1.5151
 1670SOL     OW 5065   1.606   4.503   3.478 -0.5388 -0.0121  0.2380
 1670SOL    HW1 5066   1.665   4.518   3.552 -0.0866 -2.9238  0.6040
 1670SOL    HW2 5067   1.565   4.419   3.498 -0.6099 -0.7727 -2.6774
 1671SOL     OW 5068   3.670   4.066   2.472 -0.2444  0.1616  0.1815
 1671SOL    HW1 5069   3.765   4.070   2.479 -0.2434  2.9352 -0.5310
 1671SOL    HW2 5070   3.648   3.977   2.502  2.4121 -0.0906  1.6863
 1672SOL     OW 5071   4.467   0.570   1.981  0.9370 -0.6643 -0.0132
 1672SOL    HW1 5072   4.473   0.665   1.976  1.3876 -0.7210 -0.6566
 1672SOL    HW2 5073   4.486   0.539   1.892  0.5472 -1.3442  0.1258
 1673SOL     OW 5074   0.203   0.378   4.035 -0.2252  0.8297 -0.8405
 1673SOL    HW1 5075   0.180   0.288   4.060 -0.0048  0.1569 -2.8826
 1673SOL    HW2 5076   0.134   0.405   3.974  1.0222  1.0782 -2.1996
 1674SOL     OW 5077   2.659   3.287   2.423  0.4403  0.6708 -0.0312
 1674SOL    HW1 5078   2.639   3.198   2.394  1.3646  0.3039  0.4062
 1674SOL    HW2 5079   2.596   3.343   2.376  0.9094 -0.0426 -1.5858
 1675SOL     OW 5080   3.000   4.303   0.214 -0.1361  0.0521 -0.1523
 1675SOL    HW1 5081   3.027   4.321   0.304  0.3652 -1.3801  0.0218
 1675SOL    HW2 5082   3.075   4.329   0.160 -0.2450  0.4494 -0.1132
 1676SOL     OW 5083   3.383   4.782   1.929  0.3676 -0.0574 -0.2614
 1676SOL    HW1 5084   3.303   4.730   1.919  0.3342 -0.6811  2.3629
 1676SOL    HW2 5085   3.352   4.870   1.948  0.2418 -0.3669  1.0817
 1677SOL     OW 5086   1.223   1.521   2.582 -0.2632 -0.6031  0.0287
 1677SOL    HW1 5087   1.257   1.436   2.556  2.1933  0.3147 -0.0502
 1677SOL    HW2 5088   1.242   1.528   2.675  1.5585  0.6432 -0.3762
 1678SOL     OW 5089   2.684   2.928   4.860 -0.2208  0.0729 -0.5294
 1678SOL    HW1 5090   2.767   2.964   4.890 -0.7902  0.7790  0.2437
 1678SOL    HW2 5091   2.706   2.841   4.827  0.7723  0.1236 -0.0344
 1679SOL     OW 5092   4.404   0.846   1.691 -0.4844 -0.2816  0.2720
 1679SOL    HW1 5093   4.451   0.777   1.644 -2.5915 -1.3092 -0.4293
 1679SOL    HW2 5094   4.334   0.801   1.737  0.1368  1.0093  2.6355
 1680SOL     OW 5095   1.492   2.630   4.221 -0.4990 -0.7118  0.6613
 1680SOL    HW1 5096   1.491   2.576   4.300 -0.5652  0.5031  1.5194
 1680SOL    HW2 5097   1.578   2.673   4.223 -1.1586  0.6466  1.0190
 1681SOL     OW 5098   3.206   2.644   2.628 -0.1448 -0.1643 -0.3375
 1681SOL    HW1 5099   3.233   2.552   2.628 -1.3472 -0.5595 -1.9645
 1681SOL    HW2 5100   3.159   2.655   2.545 -2.8457  1.0537  1.2043
 1682SOL     OW 5101   2.498   1.829   3.529 -0.0106 -0.4922 -0.0289
 1682SOL    HW1 5102   2.404   1.812   3.534 -0.6419  1.2883 -3.1509
 1682SOL    HW2 5103   2.506   1.902   3.468  3.4162 -0.3540  0.3854
 1683SOL     OW 5104   4.711   4.328   1.892 -0.0284  0.3500 -0.4283
 1683SOL    HW1 5105   4.628   4.355   1.931 -0.5642 -2.4800  0.6543
 1683SOL    HW2 5106   4.707   4.357   1.801 -1.6277  1.3630 -0.0640
 1684SOL     OW 5107   3.114   2.018   3.118 -0.3903  0.0229 -0.1146
 1684SOL    HW1 5108   3.087   2.109   3.129 -0.2020  0.2106 -1.0912
 1684SOL    HW2 5109   3.208   2.018   3.136 -0.1803  0.2338 -1.1674
 1685SOL     OW 5110   0.822   4.131   1.754 -0.3932  0.6219  0.2489
 1685SOL    HW1 5111   0.851   4.222   1.750  0.8627  0.2653  0.8120
 1685SOL    HW2 5112   0.895   4.081   1.718 -1.0413 -0.1728  0.0223
 1686SOL     OW 5113   1.789   3.054   2.067 -0.4510 -0.9764  0.0026
 1686SOL    HW1 5114   1.723   2.985   2.074  0.7403 -2.0824  1.0180
 1686SOL    HW2 5115   1.860   3.025   2.125 -0.5334  1.8619  1.7254
 1687SOL     OW 5116   2.410   1.519   2.258 -0.3727 -0.2227 -0.1348
 1687SOL    HW1 5117   2.329   1.471   2.243  0.2307 -2.0891  2.0516
 1687SOL    HW2 5118   2.396   1.562   2.342  1.5326 -2.2115  1.2991
 1688SOL     OW 5119   4.450   1.791   1.119  0.0241 -0.0509  0.3769
 1688SOL    HW1 5120   4.506   1.842   1.060 -0.1924  0.0106  0.2237
 1688SOL    HW2 5121   4.405   1.729   1.062  0.5190 -0.6300  0.6028
 1689SOL     OW 5122   0.313   0.605   1.778 -0.0369  0.1574 -0.2062
 1689SOL    HW1 5123   0.399   0.584   1.817 -0.0791  0.5511  0.1078
 1689SOL    HW2 5124   0.262   0.524   1.789  0.1026  0.1124  0.1450
 1690SOL     OW 5125   2.591   4.166   2.559  0.1874 -0.2071  0.4228
 1690SOL    HW1 5126   2.685   4.150   2.551  0.3980  1.0620  0.1288
 1690SOL    HW2 5127   2.582   4.210   2.644 -0.4043 -2.0004  1.3462
 1691SOL     OW 5128   0.063   4.770   3.394 -0.1020 -0.0852  0.5012
 1691SOL    HW1 5129   0.120   4.737   3.326  0.0307  1.4694 -0.1924
 1691SOL    HW2 5130   0.112   4.758   3.475  0.3377 -0.6340  0.1550
 1692SOL     OW 5131   1.637   3.716   0.453 -0.1075 -0.3520 -0.5716
 1692SOL    HW1 5132   1.661   3.730   0.361  0.6834 -1.2724 -0.5131
 1692SOL    HW2 5133   1.665   3.795   0.498 -1.4336  0.5659 -1.2708
 1693SOL     OW 5134   2.784   3.562   0.376  0.2889  0.0381  0.2757
 1693SOL    HW1 5135   2.770   3.628   0.308 -0.3424 -1.3518 -0.9882
 1693SOL    HW2 5136   2.876   3.537   0.366  0.6774  1.0383  1.0952
 1694SOL     OW 5137   4.293   0.084   3.641  0.0811 -0.1423  0.5958
 1694SOL    HW1 5138   4.368   0.025   3.634  1.9273  2.0578  0.6908
 1694SOL    HW2 5139   4.241   0.066   3.562  0.6111 -1.7923  0.5790
 1695SOL     OW 5140   3.567   2.886   4.422  0.4537 -0.0466 -0.2465
 1695SOL    HW1 5141   3.510   2.839   4.484 -0.9678  0.7999 -0.8561
 1695SOL    HW2 5142   3.636   2.824   4.401  0.2367 -0.8122  1.1921
 1696SOL     OW 5143   4.146   3.217   0.812  0.3679 -0.6083  0.2958
 1696SOL    HW1 5144   4.153   3.180   0.900 -0.6110  0.7212  0.9495
 1696SOL    HW2 5145   4.168   3.309   0.822  1.0722 -0.6010 -1.0256
 1697SOL     OW 5146   2.948   1.058   3.050  0.2965 -0.1321  0.2156
 1697SOL    HW1 5147   3.037   1.092   3.040  0.6285 -0.5956  1.4427
 1697SOL    HW2 5148   2.924   1.027   2.962  1.0505  0.6780 -0.2902
 1698SOL     OW 5149   2.834   4.525   2.489  0.3338 -0.2732  0.0466
 1698SOL    HW1 5150   2.889   4.519   2.568  0.0720 -0.8385  0.1957
 1698SOL    HW2 5151   2.751   4.486   2.515  0.5272 -1.2568 -0.7459
 1699SOL     OW 5152   2.043   1.817   3.915 -0.0125 -0.0808 -0.2484
 1699SOL    HW1 5153   2.011   1.779   3.996 -0.1320  0.9683  0.2098
 1699SOL    HW2 5154   2.128   1.774   3.900 -0.3802 -0.8932 -0.0294
 1700SOL     OW 5155   1.729   0.484   1.607 -0.3596  0.5908 -0.0071
 1700SOL    HW1 5156   1.793   0.554   1.592  0.1181 -0.1048 -1.3990
 1700SOL    HW2 5157   1.777   0.417   1.656 -0.0708  0.1732 -0.8432
 1701SOL     OW 5158   1.899   2.775   2.863  0.1103  0.3718  0.1639
 1701SOL    HW1 5159   1.929   2.791   2.774 -0.7350  0.5054 -0.1087
 1701SOL    HW2 5160   1.805   2.795   2.861  0.0660  0.3175  1.0673
 1702SOL     OW 5161   2.566   3.998   4.556 -0.1144  0.1004  0.9473
 1702SOL    HW1 5162   2.566   3.967   4.647  0.2601 -1.5157  0.4317
 1702SOL    HW2 5163   2.658   3.997   4.530 -0.1761  0.9314  0.6544
 1703SOL     OW 5164   0.490   3.029   4.493  0.5028 -0.1894  0.5930
 1703SOL    HW1 5165   0.568   3.084   4.499  1.7440 -2.0380  2.7686
 1703SOL    HW2 5166   0.473   3.022   4.399  2.1895  1.2766  0.1294
 1704SOL     OW 5167   4.455   1.498   1.049 -0.0693  0.2848 -0.4026
 1704SOL    HW1 5168   4.405   1.518   1.127  1.6739  0.2774  0.7657
 1704SOL    HW2 5169   4.406   1.428   1.006 -0.4359 -0.5489  1.3236
 1705SOL     OW 5170   1.873   1.929   2.899 -0.8641  0.1075 -0.0976
 1705SOL    HW1 5171   1.840   2.014   2.870 -2.1684 -0.5418 -0.6266
 1705SOL    HW2 5172   1.830   1.914   2.983 -1.9920 -0.7653 -0.8066
 1706SOL     OW 5173   3.079   2.198   0.020 -0.3848 -0.5362 -0.2886
 1706SOL    HW1 5174   3.056   2.105   0.031 -2.3728 -0.1763 -1.0953
 1706SOL    HW2 5175   3.067   2.235   0.108 -2.3340 -0.5151 -0.5229
 1707SOL     OW 5176   3.728   4.286   4.914  0.3879  0.0750 -0.9217
 1707SOL    HW1 5177   3.713   4.282   4.820 -0.0282  0.6665 -0.8902
 1707SOL    HW2 5178   3.801   4.227   4.930 -0.5995 -1.3447 -1.3872
 1708SOL     OW 5179   4.836   4.237   2.717 -0.9327 -0.1091  0.2814
 1708SOL    HW1 5180   4.771   4.284   2.665 -1.6062 -0.4787  0.7653
 1708SOL    HW2 5181   4.810   4.145   2.710  0.6144 -0.5021 -1.0030
 1709SOL     OW 5182   4.365   4.357   0.183 -0.7063 -0.5191  0.4089
 1709SOL    HW1 5183   4.309   4.434   0.193 -0.6371 -0.0977 -1.7933
 1709SOL    HW2 5184   4.313   4.285   0.218 -0.8910  0.4364  2.2286
 1710SOL     OW 5185   3.461   0.119   3.312  0.2228 -0.0358 -0.0840
 1710SOL    HW1 5186   3.526   0.160   3.255 -0.5093  1.4240  0.0887
 1710SOL    HW2 5187   3.383   0.174   3.303 -0.6838 -1.1913  0.4588
 1711SOL     OW 5188   0.696   0.783   4.087  0.2671  0.7053 -0.7336
 1711SOL    HW1 5189   0.610   0.785   4.129 -0.5184 -0.5754 -2.2180
 1711SOL    HW2 5190   0.715   0.875   4.068 -0.8011  1.0003 -0.4507
 1712SOL     OW 5191   3.707   3.579   2.083  0.1128  0.0894  0.3383
 1712SOL    HW1 5192   3.620   3.564   2.046 -0.4133 -0.2737  1.6399
 1712SOL    HW2 5193   3.738   3.659   2.040 -0.2896 -0.5076 -1.1193
 1713SOL     OW 5194   0.543   3.992   3.234 -0.2100  0.4795  0.0352
 1713SOL    HW1 5195   0.632   3.959   3.250 -0.0025  1.1431  0.2758
 1713SOL    HW2 5196   0.542   4.078   3.275 -0.5723  1.0137 -1.0753
 1714SOL     OW 5197   0.169   2.998   2.707 -0.0157  0.3535 -0.1635
 1714SOL    HW1 5198   0.174   2.943   2.786 -1.4420  0.1707 -0.1797
 1714SOL    HW2 5199   0.079   3.029   2.705  0.2882  1.2286 -1.1589
 1715SOL     OW 5200   4.323   0.761   4.149  0.1970  0.4479  0.9687
 1715SOL    HW1 5201   4.355   0.775   4.059 -0.6631 -0.4669  0.5029
 1715SOL    HW2 5202   4.233   0.791   4.148 -0.2690 -0.8760  1.1316
 1716SOL     OW 5203   0.934   4.520   2.057 -0.1076  0.0672  0.1766
 1716SOL    HW1 5204   0.980   4.488   2.135 -0.4672  0.2172  0.4523
 1716SOL    HW2 5205   0.872   4.450   2.036 -0.0023  0.0220  0.0205
 1717SOL     OW 5206   3.556   1.040   3.783  0.2945 -0.2791  0.3590
 1717SOL    HW1 5207   3.576   0.969   3.723  1.3865 -0.6190  1.0892
 1717SOL    HW2 5208   3.558   1.119   3.728 -1.3023 -0.8101 -0.5253
 1718SOL     OW 5209   2.396   0.354   2.363  0.0377 -0.3724 -0.2449
 1718SOL    HW1 5210   2.321   0.414   2.360  0.0648 -0.2786  0.6951
 1718SOL    HW2 5211   2.371   0.283   2.305 -1.1701 -0.7716  0.7093
 1719SOL     OW 5212   4.131   2.579   1.707 -0.5553  0.1287  0.2853
 1719SOL    HW1 5213   4.199   2.641   1.682 -1.0084 -0.1122 -1.7595
 1719SOL    HW2 5214   4.161   2.541   1.790  1.2251  0.8329 -0.0011
 1720SOL     OW 5215   1.536   1.335   4.098 -0.1483 -0.2239  0.0211
 1720SOL    HW1 5216   1.625   1.314   4.069 -0.2215 -1.7587  0.7984
 1720SOL    HW2 5217   1.482   1.263   4.065 -0.8218 -0.1418  0.9110
 1721SOL     OW 5218   2.533   4.345   0.951  0.5919 -0.0074  0.3472
 1721SOL    HW1 5219   2.460   4.381   1.003 -0.3726 -1.0125 -0.2678
 1721SOL    HW2 5220   2.566   4.420   0.902  1.0314  0.8033  1.8230
 1722SOL     OW 5221   3.388   2.441   4.430 -0.1481  0.9843  0.4461
 1722SOL    HW1 5222   3.345   2.430   4.515 -0.9383 -3.7662 -0.3100
 1722SOL    HW2 5223   3.317   2.431   4.366  0.7838  2.1690 -0.8453
 1723SOL     OW 5224   3.609   2.650   2.694  0.2622  0.5148 -0.1997
 1723SOL    HW1 5225   3.597   2.720   2.630 -1.2782  2.5005  2.0884
 1723SOL    HW2 5226   3.582   2.689   2.777  2.0776 -1.9631  1.6754
 1724SOL     OW 5227   4.764   1.592   1.645  0.0258 -0.1922 -0.6029
 1724SOL    HW1 5228   4.743   1.681   1.618 -2.8564 -0.6290 -0.2127
 1724SOL    HW2 5229   4.705   1.575   1.718  0.0766 -2.5814 -1.0259
 1725SOL     OW 5230   4.670   4.034   3.932 -0.2377  0.0965  0.6670
 1725SOL    HW1 5231   4.575   4.021   3.931 -0.1523 -0.6017 -0.7423
 1725SOL    HW2 5232   4.686   4.102   3.867  0.2098  0.4020  1.0911
 1726SOL     OW 5233   3.385   3.510   4.565  0.2865  0.0874  0.2285
 1726SOL    HW1 5234   3.339   3.487   4.645  0.4715  0.6189  0.4913
 1726SOL    HW2 5235   3.317   3.510   4.497  0.0533  0.0520  0.4606
 1727SOL     OW 5236   0.998   4.466   2.634  0.1855 -0.2685  0.0374
 1727SOL    HW1 5237   1.000   4.552   2.675  1.6238 -0.4398  0.3649
 1727SOL    HW2 5238   1.079   4.424   2.662  0.1745 -1.2021 -1.2495
 1728SOL     OW 5239   3.688   1.883   3.343 -0.3436  0.3407  0.2210
 1728SOL    HW1 5240   3.771   1.841   3.368 -0.5558  1.2081  2.5902
 1728SOL    HW2 5241   3.698   1.974   3.370 -1.3235  0.9636 -1.3913
 1729SOL     OW 5242   0.817   2.243   2.325 -0.7339 -0.2594 -0.5624
 1729SOL    HW1 5243   0.803   2.201   2.239 -0.3563 -0.8640 -0.3333
 1729SOL    HW2 5244   0.822   2.170   2.386  0.6463  0.0664 -0.2481
 1730SOL     OW 5245   3.679   4.369   4.653  0.3485  0.6414 -0.1675
 1730SOL    HW1 5246   3.634   4.454   4.661  0.5920  0.7296  0.2899
 1730SOL    HW2 5247   3.668   4.345   4.561 -1.3372  0.2740  0.0866
 1731SOL     OW 5248   3.767   2.330   3.892  0.4248  0.2340  0.3645
 1731SOL    HW1 5249   3.707   2.271   3.847  0.6548 -0.0102  0.3769
 1731SOL    HW2 5250   3.849   2.281   3.899  0.4774  0.3761  0.7914
 1732SOL     OW 5251   0.307   1.911   4.189 -0.4570  0.3133 -0.3601
 1732SOL    HW1 5252   0.283   1.910   4.282 -0.6680 -0.0677 -0.4171
 1732SOL    HW2 5253   0.390   1.864   4.186  0.4790  1.8956 -0.1203
 1733SOL     OW 5254   0.284   2.240   1.864 -0.1783  0.0298 -0.7898
 1733SOL    HW1 5255   0.264   2.320   1.913  0.7866 -0.3368  0.2459
 1733SOL    HW2 5256   0.320   2.181   1.930  1.6085 -0.3260 -2.0257
 1734SOL     OW 5257   3.600   3.984   3.620  0.4655 -0.5035  0.0307
 1734SOL    HW1 5258   3.663   3.986   3.548 -0.4518  1.1084 -0.8060
 1734SOL    HW2 5259   3.585   4.077   3.640 -1.4458 -0.8470  0.3452
 1735SOL     OW 5260   0.583   2.570   1.655 -0.5167 -0.0949  0.2765
 1735SOL    HW1 5261   0.542   2.647   1.695  0.7198 -0.0855  1.6571
 1735SOL    HW2 5262   0.660   2.605   1.610 -0.7702 -0.3592 -0.3685
 1736SOL     OW 5263   2.532   4.660   0.103  0.5476 -0.2073  0.5479
 1736SOL    HW1 5264   2.575   4.578   0.079  0.3538 -0.3870  0.8091
 1736SOL    HW2 5265   2.576   4.726   0.049  0.2852 -0.5644 -0.1250
 1737SOL     OW 5266   3.693   4.096   3.942  0.4344  0.0587  0.1533
 1737SOL    HW1 5267   3.650   4.100   3.856  1.7993 -1.3416 -0.6473
 1737SOL    HW2 5268   3.678   4.007   3.973 -0.1278  0.5841  1.4336
 1738SOL     OW 5269   0.671   2.951   0.604 -0.2064  0.6267  0.3048
 1738SOL    HW1 5270   0.715   2.871   0.577  1.3944  1.0179  1.5567
 1738SOL    HW2 5271   0.674   2.949   0.700  2.1626  3.2595  0.4435
 1739SOL     OW 5272   1.166   1.309   4.928  0.6261 -0.4959  0.1381
 1739SOL    HW1 5273   1.131   1.335   5.014 -0.6566  1.0974 -0.8008
 1739SOL    HW2 5274   1.165   1.213   4.930 -0.9123 -0.5085  1.3441
 1740SOL     OW 5275   1.777   1.412   2.932 -0.4386  0.4611  0.1281
 1740SOL    HW1 5276   1.830   1.338   2.961 -0.0295  0.5371 -0.4118
 1740SOL    HW2 5277   1.699   1.409   2.988 -1.5970 -1.8543 -1.4051
 1741SOL     OW 5278   2.079   1.523   3.508  0.6006 -0.2873 -0.0784
 1741SOL    HW1 5279   2.144   1.456   3.486  0.1513 -0.2781 -1.5260
 1741SOL    HW2 5280   2.132   1.598   3.536  1.2578 -0.2290 -1.3776
 1742SOL     OW 5281   3.993   2.263   1.588  0.1213 -0.7872 -0.2568
 1742SOL    HW1 5282   4.065   2.200   1.577 -1.0874 -2.3742  0.4511
 1742SOL    HW2 5283   4.023   2.341   1.543  2.1466 -1.5040 -0.2801
 1743SOL     OW 5284   0.214   2.462   2.015  0.3336  0.1947  0.0071
 1743SOL    HW1 5285   0.137   2.444   2.070  1.0556 -0.4255  0.8317
 1743SOL    HW2 5286   0.256   2.537   2.056  1.6022 -1.0681  1.1251
 1744SOL     OW 5287   3.707   2.312   4.590 -0.0457 -0.2617 -0.6456
 1744SOL    HW1 5288   3.765   2.276   4.522  0.8370 -1.4714  0.6991
 1744SOL    HW2 5289   3.756   2.301   4.671 -1.1170  1.0883  0.2227
 1745SOL     OW 5290   4.055   0.350   0.203 -0.5051  0.4351  0.0519
 1745SOL    HW1 5291   4.003   0.376   0.127  0.5506  1.6077 -0.3191
 1745SOL    HW2 5292   4.043   0.255   0.209 -2.6301  0.6555 -0.0098
 1746SOL     OW 5293   1.496   0.833   2.071  0.4192 -0.3617 -0.3812
 1746SOL    HW1 5294   1.418   0.783   2.095  0.5342 -0.4098 -0.0973
 1746SOL    HW2 5295   1.523   0.798   1.987 -0.7586  0.7002 -1.2353
 1747SOL     OW 5296   3.062   2.011   4.040 -0.1894 -0.3187 -0.2787
 1747SOL    HW1 5297   3.049   1.968   4.125  1.9048 -1.5345 -0.4970
 1747SOL    HW2 5298   3.006   2.088   4.043 -0.4082 -0.5006  2.0891
 1748SOL     OW 5299   1.033   4.412   1.054 -0.4044  0.9861  0.1072
 1748SOL    HW1 5300   1.067   4.342   1.109 -1.5157  0.3412  0.0109
 1748SOL    HW2 5301   0.946   4.431   1.090 -1.9683 -0.7092 -2.3968
 1749SOL     OW 5302   1.804   4.032   4.628  0.0245  0.1452 -0.2196
 1749SOL    HW1 5303   1.866   4.006   4.696 -0.8293  0.4286  0.6852
 1749SOL    HW2 5304   1.838   3.991   4.549  1.2241  0.0789  0.2959
 1750SOL     OW 5305   3.315   1.789   0.336 -0.1835 -0.5368  0.1406
 1750SOL    HW1 5306   3.378   1.783   0.408  1.3328  0.7943 -1.0214
 1750SOL    HW2 5307   3.251   1.853   0.366 -0.0893 -0.6854  0.6745
 1751SOL     OW 5308   0.772   4.004   2.957  0.2191 -0.0500 -0.1610
 1751SOL    HW1 5309   0.763   3.988   3.050 -2.0797  0.5355 -0.2103
 1751SOL    HW2 5310   0.798   4.096   2.951 -1.3307  0.4208 -0.0811
 1752SOL     OW 5311   1.016   2.666   2.379 -0.0202 -0.0049  0.1845
 1752SOL    HW1 5312   0.973   2.741   2.340 -1.1704 -0.5776  0.3000
 1752SOL    HW2 5313   1.074   2.633   2.311 -1.1011 -0.2688 -0.6438
 1753SOL     OW 5314   0.531   1.461   2.729  0.2703 -0.0721 -0.0974
 1753SOL    HW1 5315   0.602   1.467   2.793 -0.3468  0.6985  0.5269
 1753SOL    HW2 5316   0.460   1.514   2.766  0.1651  1.0403 -1.7587
 1754SOL     OW 5317   4.794   1.886   4.071  0.5524  0.3889 -0.1228
 1754SOL    HW1 5318   4.852   1.938   4.015  0.9018 -1.5542 -1.6923
 1754SOL    HW2 5319   4.715   1.939   4.080  1.1558  1.4910 -1.0565
 1755SOL     OW 5320   4.157   1.656   2.143  0.0414  0.2442  0.4999
 1755SOL    HW1 5321   4.107   1.641   2.224  1.8034  1.1008  1.8090
 1755SOL    HW2 5322   4.240   1.610   2.158  0.6920  1.0736 -0.4901
 1756SOL     OW 5323   4.263   3.115   1.308  0.2871  0.4926  0.1753
 1756SOL    HW1 5324   4.257   3.054   1.381 -2.7533  0.3150 -0.0941
 1756SOL    HW2 5325   4.290   3.198   1.348  1.4974 -0.2778  1.0108
 1757SOL     OW 5326   0.178   2.434   3.021  0.1591  0.5861 -0.2571
 1757SOL    HW1 5327   0.113   2.382   2.973  1.7293 -2.0397  0.2424
 1757SOL    HW2 5328   0.260   2.417   2.974  1.3353 -0.2532  1.9574
 1758SOL     OW 5329   2.091   4.694   2.836 -0.0809 -0.0203 -0.1703
 1758SOL    HW1 5330   2.054   4.780   2.858 -1.4942  0.0703 -2.5056
 1758SOL    HW2 5331   2.028   4.631   2.872  0.1555 -0.0276  0.2294
 1759SOL     OW 5332   3.842   3.258   0.912  0.5130  0.0191  0.2692
 1759SOL    HW1 5333   3.900   3.250   0.987 -0.4450 -0.7770  0.9457
 1759SOL    HW2 5334   3.820   3.168   0.889  1.4360  0.2000 -1.5048
 1760SOL     OW 5335   2.022   0.786   0.104  0.1247  0.0058  0.1766
 1760SOL    HW1 5336   2.091   0.842   0.139 -1.0543  0.6611  1.5301
 1760SOL    HW2 5337   2.008   0.719   0.171 -0.6402 -0.0452 -0.0236
 1761SOL     OW 5338   3.066   2.271   4.698  0.0471 -0.0323  0.1460
 1761SOL    HW1 5339   3.159   2.257   4.678 -0.4697 -1.7784 -1.2584
 1761SOL    HW2 5340   3.050   2.215   4.774 -0.0563 -0.4763 -0.1975
 1762SOL     OW 5341   2.910   3.923   0.917 -0.1325  0.0638  0.4589
 1762SOL    HW1 5342   2.858   3.850   0.884 -0.4412 -0.4329  1.9519
 1762SOL    HW2 5343   3.000   3.893   0.910 -0.1563  0.1488 -0.3171
 1763SOL     OW 5344   1.436   4.010   0.624 -0.2860  0.0085  0.9495
 1763SOL    HW1 5345   1.413   3.955   0.699  0.9465  0.0565  1.3944
 1763SOL    HW2 5346   1.376   4.084   0.629  1.3431  1.2914  3.4038
 1764SOL     OW 5347   0.490   3.472   0.839 -0.1074 -0.2689  0.0628
 1764SOL    HW1 5348   0.407   3.456   0.794  0.8068 -2.2726 -1.0227
 1764SOL    HW2 5349   0.488   3.414   0.915  1.1490 -1.9636 -1.1400
 1765SOL     OW 5350   4.826   2.163   0.274  0.6474  0.1356  0.2100
 1765SOL    HW1 5351   4.755   2.224   0.255  0.9997  0.3729 -0.3630
 1765SOL    HW2 5352   4.801   2.123   0.357 -0.6568 -0.4879 -0.4319
 1766SOL     OW 5353   2.441   3.034   4.900 -0.1144  0.0508  0.0522
 1766SOL    HW1 5354   2.527   2.996   4.885 -0.4257 -0.4449 -0.5285
 1766SOL    HW2 5355   2.418   3.009   4.989 -0.5925 -1.7128 -0.5316
 1767SOL     OW 5356   0.564   1.016   3.105  0.0833  0.1448 -0.0199
 1767SOL    HW1 5357   0.583   1.062   3.187  0.2452  3.5776 -1.7992
 1767SOL    HW2 5358   0.644   1.025   3.053 -0.9091  0.5209 -1.5629
 1768SOL     OW 5359   2.417   2.137   3.543  0.1640 -0.1456 -0.0466
 1768SOL    HW1 5360   2.460   2.192   3.608  0.0977 -0.3446  0.1670
 1768SOL    HW2 5361   2.382   2.063   3.593  4.3588 -2.9875 -0.8066
 1769SOL     OW 5362   2.498   3.918   2.820 -0.1435 -0.3618  0.0906
 1769SOL    HW1 5363   2.413   3.880   2.844 -1.1520  1.4615 -0.3972
 1769SOL    HW2 5364   2.548   3.914   2.902 -1.0539 -0.5594  0.6673
 1770SOL     OW 5365   4.637   0.550   0.476 -0.6082 -0.0390  0.1895
 1770SOL    HW1 5366   4.567   0.525   0.416 -0.0681 -1.0117 -0.0662
 1770SOL    HW2 5367   4.633   0.645   0.479 -1.0315  0.0002 -0.9341
 1771SOL     OW 5368   4.684   3.227   2.234 -0.1748 -0.5445  0.0550
 1771SOL    HW1 5369   4.709   3.135   2.236 -0.6713 -0.9052 -3.6100
 1771SOL    HW2 5370   4.763   3.273   2.207 -0.4265 -0.1403  0.0054
 1772SOL     OW 5371   3.008   0.902   3.698  0.0393  0.0916 -0.4992
 1772SOL    HW1 5372   3.019   0.865   3.785  0.2192  0.2022 -0.4755
 1772SOL    HW2 5373   3.060   0.845   3.641  0.5006  0.4394 -0.4299
 1773SOL     OW 5374   0.936   3.185   3.124  0.1026 -0.0701 -0.2304
 1773SOL    HW1 5375   0.935   3.209   3.032  1.5628 -0.4607 -0.3609
 1773SOL    HW2 5376   0.973   3.262   3.168 -1.7067  0.6129  0.2232
 1774SOL     OW 5377   3.582   3.726   4.817 -0.0058  0.0525 -0.1028
 1774SOL    HW1 5378   3.616   3.758   4.901  1.9891 -3.3406  0.5354
 1774SOL    HW2 5379   3.638   3.767   4.752 -0.0222  0.8247  0.3463
 1775SOL     OW 5380   4.181   4.962   0.908 -0.4787  0.2014 -0.1878
 1775SOL    HW1 5381   4.249   4.987   0.844 -0.9317  2.5345  0.1654
 1775SOL    HW2 5382   4.229   4.952   0.990 -0.1884 -0.9091 -0.4680
 1776SOL     OW 5383   3.156   3.477   1.753 -0.2741  0.0187 -0.0405
 1776SOL    HW1 5384   3.149   3.385   1.779 -0.3791  0.0628  0.0908
 1776SOL    HW2 5385   3.250   3.495   1.750 -0.2265 -0.3346 -0.9190
 1777SOL     OW 5386   2.568   4.469   2.577  0.8410 -0.5329 -0.3016
 1777SOL    HW1 5387   2.496   4.528   2.601  1.9681  0.3237  1.1873
 1777SOL    HW2 5388   2.526   4.399   2.527 -0.8313  0.5615 -0.5220
 1778SOL     OW 5389   2.448   2.131   0.771 -0.1021 -0.2629  0.0025
 1778SOL    HW1 5390   2.513   2.198   0.793 -0.2747 -0.5354  1.4899
 1778SOL    HW2 5391   2.395   2.123   0.851  0.9827 -3.4098  0.5234
 1779SOL     OW 5392   2.634   0.479   0.448  0.0658 -0.0883  0.5646
 1779SOL    HW1 5393   2.570   0.513   0.386  1.0167  1.6191  0.4717
 1779SOL    HW2 5394   2.588   0.479   0.532 -0.8427 -1.2995  0.0983
 1780SOL     OW 5395   2.631   4.281   2.993  0.4157  0.2122 -0.2025
 1780SOL    HW1 5396   2.682   4.216   2.944  1.9912  1.7697 -0.7353
 1780SOL    HW2 5397   2.661   4.271   3.084  0.9761  0.4686 -0.3543
 1781SOL     OW 5398   3.793   3.972   2.778  0.4661 -0.1155 -0.0154
 1781SOL    HW1 5399   3.861   4.039   2.782 -0.2790  1.0768 -3.7096
 1781SOL    HW2 5400   3.715   4.016   2.812  0.2786  0.5520 -1.2306
 1782SOL     OW 5401   4.260   0.027   4.189 -0.3534 -0.5469 -0.0127
 1782SOL    HW1 5402   4.269   0.058   4.099  1.1147 -0.0852  0.2586
 1782SOL    HW2 5403   4.198  -0.046   4.183  1.1366 -1.7773 -1.7193
 1783SOL     OW 5404   0.633   4.312   0.563  0.2860 -0.2261  0.1869
 1783SOL    HW1 5405   0.692   4.258   0.510  0.1705  0.1510 -0.3339
 1783SOL    HW2 5406   0.549   4.308   0.516 -0.5042 -1.8504  1.6115
 1784SOL     OW 5407   1.857   0.449   3.945 -0.4075 -0.1007  0.4805
 1784SOL    HW1 5408   1.895   0.372   3.988 -0.5643 -0.2346  0.3821
 1784SOL    HW2 5409   1.931   0.508   3.932 -0.3332 -0.1273  0.7902
 1785SOL     OW 5410   2.735   4.312   2.084 -0.8682  0.1451  0.2598
 1785SOL    HW1 5411   2.715   4.404   2.063 -1.6387  0.2312  1.3261
 1785SOL    HW2 5412   2.830   4.312   2.100 -0.5841  0.4407 -1.2482
 1786SOL     OW 5413   1.179   0.899   2.067  0.1876  0.0684  0.0960
 1786SOL    HW1 5414   1.206   0.904   1.976 -2.0964 -1.5346 -0.7609
 1786SOL    HW2 5415   1.139   0.984   2.085 -1.0518 -0.2376 -1.0455
 1787SOL     OW 5416   3.517   1.023   3.327  0.0085  1.0458  0.3658
 1787SOL    HW1 5417   3.463   0.945   3.333  0.9242  0.1138 -2.1518
 1787SOL    HW2 5418   3.456   1.092   3.298 -0.4137  0.7814  0.6182
 1788SOL     OW 5419   2.177   4.160   1.551 -0.3565 -0.4964  0.5615
 1788SOL    HW1 5420   2.089   4.147   1.586 -0.2088 -1.4693  0.5904
 1788SOL    HW2 5421   2.183   4.254   1.536 -1.6146 -0.4952 -0.0285
 1789SOL     OW 5422   1.544   2.541   3.934  0.1420  0.0337 -0.0347
 1789SOL    HW1 5423   1.548   2.466   3.874  1.1571 -1.7128  2.0764
 1789SOL    HW2 5424   1.562   2.504   4.020  2.0544  2.9231  0.9636
 1790SOL     OW 5425   0.118   0.609   4.802 -0.0522 -0.4161 -0.3205
 1790SOL    HW1 5426   0.041   0.554   4.787 -0.5627  0.3437 -0.5290
 1790SOL    HW2 5427   0.085   0.682   4.855  0.3125  0.4060 -1.1975
 1791SOL     OW 5428   3.028   3.997   3.507 -0.4133 -0.5612  0.0238
 1791SOL    HW1 5429   3.039   4.060   3.579 -1.4814  0.0550 -0.3212
 1791SOL    HW2 5430   3.104   3.939   3.514 -0.0406  0.0185  1.1085
 1792SOL     OW 5431   4.383   1.859   1.367  0.4091 -0.4406 -0.4413
 1792SOL    HW1 5432   4.449   1.846   1.299 -0.2447 -1.5023 -0.8896
 1792SOL    HW2 5433   4.312   1.905   1.323  0.9330  0.9519  0.1077
 1793SOL     OW 5434   1.431   4.779   0.844  0.1777  0.5049 -0.2253
 1793SOL    HW1 5435   1.387   4.694   0.846 -0.6673  0.9384 -0.0764
 1793SOL    HW2 5436   1.362   4.842   0.865  0.9788  1.1509  0.5292
 1794SOL     OW 5437   0.532   0.533   1.111  0.0595  0.0828 -0.0434
 1794SOL    HW1 5438   0.479   0.529   1.191  0.4197 -0.1573  0.1834
 1794SOL    HW2 5439   0.594   0.460   1.119  1.0722  0.9444  0.1417
 1795SOL     OW 5440   1.856   0.785   0.569  0.4237  0.1083 -0.7675
 1795SOL    HW1 5441   1.798   0.775   0.645  1.1751  0.8754 -0.0831
 1795SOL    HW2 5442   1.797   0.778   0.494 -0.1077 -2.4297 -0.2173
 1796SOL     OW 5443   1.830   1.782   4.645 -0.1051  0.4901 -0.4161
 1796SOL    HW1 5444   1.865   1.693   4.643  0.0269  0.5490 -0.7943
 1796SOL    HW2 5445   1.890   1.830   4.703 -0.3761  0.2542  0.0716
 1797SOL     OW 5446   3.112   4.048   3.768 -0.5608  0.2168 -0.0665
 1797SOL    HW1 5447   3.077   4.095   3.844 -1.3005  0.6135 -0.6547
 1797SOL    HW2 5448   3.158   3.972   3.807 -1.0058  0.3623  0.7675
 1798SOL     OW 5449   4.588   0.960   4.500 -0.1126  0.1530 -0.1458
 1798SOL    HW1 5450   4.603   1.032   4.560  0.2360 -1.7117  2.1527
 1798SOL    HW2 5451   4.674   0.921   4.486 -0.7219 -2.3229  2.1314
 1799SOL     OW 5452   4.583   3.023   3.974 -0.1693 -0.5210 -0.3405
 1799SOL    HW1 5453   4.670   3.057   3.955  0.5832 -1.5953  0.9772
 1799SOL    HW2 5454   4.557   2.975   3.895 -0.2396  1.0613 -1.3062
 1800SOL     OW 5455   1.301   4.365   3.327 -0.7033 -0.6138  0.2169
 1800SOL    HW1 5456   1.371   4.332   3.384 -1.1512 -0.0726  1.0847
 1800SOL    HW2 5457   1.279   4.451   3.363 -1.0171 -0.2745 -0.7586
 1801SOL     OW 5458   1.437   3.756   0.149  0.0575  0.1708 -0.0638
 1801SOL    HW1 5459   1.358   3.705   0.164 -0.2914  0.3828 -1.1371
 1801SOL    HW2 5460   1.442   3.814   0.225  0.6810 -1.6851  1.3941
 1802SOL     OW 5461   4.483   1.072   0.729 -0.0925  0.3043  0.0458
 1802SOL    HW1 5462   4.494   1.078   0.634 -0.3989 -1.5744 -0.1593
 1802SOL    HW2 5463   4.572   1.075   0.765  0.1186 -0.1963 -0.4186
 1803SOL     OW 5464   4.672   4.758   4.013 -0.2932  0.0207  0.0963
 1803SOL    HW1 5465   4.657   4.680   3.960 -1.4043 -0.9599  1.7655
 1803SOL    HW2 5466   4.766   4.774   4.006  0.0660 -1.8204  0.1716
 1804SOL     OW 5467   2.586   3.922   2.100 -0.3298 -0.1436  0.0832
 1804SOL    HW1 5468   2.542   4.005   2.084  0.2453  0.3402  0.9273
 1804SOL    HW2 5469   2.525   3.855   2.069 -0.4584  0.6168 -1.3478
 1805SOL     OW 5470   4.278   1.685   4.083  0.4174  0.1683  0.1701
 1805SOL    HW1 5471   4.323   1.672   3.999  0.4522 -0.4671  0.2875
 1805SOL    HW2 5472   4.300   1.608   4.135  1.6656  1.2744  1.3457
 1806SOL     OW 5473   3.779   3.456   3.214  0.2873  0.4847 -0.0154
 1806SOL    HW1 5474   3.847   3.393   3.191 -1.7238 -2.4027  1.2541
 1806SOL    HW2 5475   3.717   3.452   3.141 -0.2228  0.3632  0.4140
 1807SOL     OW 5476   3.370   4.294   2.713  0.0937 -0.5627  0.2530
 1807SOL    HW1 5477   3.461   4.316   2.695 -0.4297  1.6902  0.1095
 1807SOL    HW2 5478   3.335   4.265   2.628  0.6703 -1.5276  0.3314
 1808SOL     OW 5479   2.525   1.502   0.887 -0.1774 -0.0554 -0.0802
 1808SOL    HW1 5480   2.574   1.467   0.962  1.7085  0.5051 -0.9695
 1808SOL    HW2 5481   2.578   1.477   0.811 -1.6904 -0.0346 -1.1912
 1809SOL     OW 5482   2.101   3.816   3.716 -0.0390 -0.2625 -0.1169
 1809SOL    HW1 5483   2.148   3.733   3.709 -1.0545 -1.1796  2.6027
 1809SOL    HW2 5484   2.170   3.883   3.720  0.9474 -1.3162  1.1528
 1810SOL     OW 5485   1.417   3.586   0.531  0.5841  0.2955  0.5400
 1810SOL    HW1 5486   1.415   3.493   0.510 -0.0301  0.3483  0.3470
 1810SOL    HW2 5487   1.497   3.618   0.491  0.6371 -0.0889  0.3352
 1811SOL     OW 5488   3.178   4.670   1.824 -0.1058  0.3420 -0.3233
 1811SOL    HW1 5489   3.102   4.727   1.839 -0.3998  0.4856 -2.0881
 1811SOL    HW2 5490   3.150   4.613   1.753  1.4299  0.3915 -0.9918
 1812SOL     OW 5491   3.718   3.082   0.181 -0.0164 -0.0496 -0.1210
 1812SOL    HW1 5492   3.738   3.129   0.262  2.0131 -1.7579  0.4547
 1812SOL    HW2 5493   3.712   3.150   0.115 -0.3062  1.2651  1.2050
 1813SOL     OW 5494   1.454   4.881   2.044  0.1347 -0.4269 -0.0552
 1813SOL    HW1 5495   1.419   4.798   2.010 -0.8367 -0.4032  0.8280
 1813SOL    HW2 5496   1.548   4.866   2.051  0.5057 -0.2255 -3.2424
 1814SOL     OW 5497   2.591   2.215   0.245 -0.2778 -0.2960 -0.4668
 1814SOL    HW1 5498   2.556   2.147   0.188  0.5007 -0.7640 -0.3917
 1814SOL    HW2 5499   2.515   2.246   0.295 -0.8884 -0.1800 -1.4297
 1815SOL     OW 5500   3.105   1.264   3.672 -0.1591  0.1249 -0.2390
 1815SOL    HW1 5501   3.157   1.331   3.627 -1.4804  0.3257 -1.5271
 1815SOL    HW2 5502   3.152   1.182   3.654  0.8861  0.5479  0.4593
 1816SOL     OW 5503   2.761   0.585   1.687 -0.1763  0.0230 -0.3210
 1816SOL    HW1 5504   2.848   0.624   1.674 -0.8234  1.1148 -1.5394
 1816SOL    HW2 5505   2.772   0.494   1.660  0.3759  0.3871 -1.4020
 1817SOL     OW 5506   2.455   1.471   3.164  0.0131  0.1380  0.2224
 1817SOL    HW1 5507   2.366   1.470   3.198  0.1312  1.6237  0.6199
 1817SOL    HW2 5508   2.507   1.430   3.233 -0.6833 -3.6205 -1.2232
 1818SOL     OW 5509   2.512   2.691   2.438  0.6588  0.2867 -0.1932
 1818SOL    HW1 5510   2.431   2.641   2.430  1.0932 -0.4794  0.0456
 1818SOL    HW2 5511   2.497   2.750   2.511  0.0236  0.7308 -0.6765
 1819SOL     OW 5512   2.815   1.120   4.784  0.1200 -0.6855 -0.0964
 1819SOL    HW1 5513   2.778   1.166   4.859 -1.2561  1.1152 -1.7597
 1819SOL    HW2 5514   2.864   1.048   4.822 -1.5721 -0.6319  2.4519
 1820SOL     OW 5515   0.826   1.720   3.785 -0.3638  0.1389  0.0442
 1820SOL    HW1 5516   0.849   1.798   3.734 -0.2919 -0.1082 -0.3017
 1820SOL    HW2 5517   0.733   1.708   3.769 -0.9819  1.6263  2.1023
 1821SOL     OW 5518   2.331   4.593   2.635  0.6110  0.3443  0.6416
 1821SOL    HW1 5519   2.296   4.535   2.702 -1.1891 -0.9659 -1.3172
 1821SOL    HW2 5520   2.307   4.681   2.664  0.9590 -0.0746  2.2864
 1822SOL     OW 5521   3.986   2.523   2.284  0.4697  0.2822  0.1826
 1822SOL    HW1 5522   3.914   2.462   2.303  0.3621  0.4604  0.3483
 1822SOL    HW2 5523   4.064   2.468   2.282  0.6180  0.3636  2.0059
 1823SOL     OW 5524   1.865   4.506   2.887  0.1737 -0.3985  0.0831
 1823SOL    HW1 5525   1.886   4.463   2.805 -0.0843  2.6483 -1.7436
 1823SOL    HW2 5526   1.774   4.481   2.906 -0.1797 -0.1703 -1.2474
 1824SOL     OW 5527   1.114   4.422   0.284  0.1263 -0.2891  0.0064
 1824SOL    HW1 5528   1.043   4.390   0.228  1.7826 -1.1348 -1.7610
 1824SOL    HW2 5529   1.131   4.351   0.345 -1.4861  0.5141  1.4657
 1825SOL     OW 5530   4.940   1.288   1.244 -0.3027 -0.3399 -0.2514
 1825SOL    HW1 5531   4.941   1.236   1.325  1.8320 -0.6881 -0.4237
 1825SOL    HW2 5532   4.848   1.311   1.231 -0.6841  0.1001  2.5107
 1826SOL     OW 5533   4.335   3.288   2.953 -0.0193  0.3919 -0.5684
 1826SOL    HW1 5534   4.318   3.376   2.988  0.6426  0.5540 -0.6387
 1826SOL    HW2 5535   4.405   3.255   3.008 -0.0611  0.0224 -0.7397
 1827SOL     OW 5536   4.894   4.048   0.603 -0.2743  1.1864  0.4006
 1827SOL    HW1 5537   4.840   4.099   0.542 -2.6340  0.0784  1.4223
 1827SOL    HW2 5538   4.864   4.074   0.690  1.8312  1.4877  1.0934
 1828SOL     OW 5539   5.000   4.658   3.006  0.4220  0.4322 -0.3465
 1828SOL    HW1 5540   4.926   4.672   3.064  0.3395 -0.2995 -0.2660
 1828SOL    HW2 5541   4.961   4.636   2.921  0.5440  0.9861 -0.5511
 1829SOL     OW 5542   4.256   1.895   2.679  0.4393 -0.0054  0.8573
 1829SOL    HW1 5543   4.311   1.921   2.752  0.8346 -1.6123  1.1771
 1829SOL    HW2 5544   4.294   1.939   2.603  2.0414 -0.8826  1.1092
 1830SOL     OW 5545   2.923   3.157   1.673 -0.3729 -0.1278 -0.1392
 1830SOL    HW1 5546   2.833   3.146   1.705 -0.5263 -0.2003 -0.5848
 1830SOL    HW2 5547   2.958   3.067   1.671 -1.1806 -0.4655 -2.4947
 1831SOL     OW 5548   4.370   4.830   3.896 -0.2961  0.0378  0.0284
 1831SOL    HW1 5549   4.463   4.848   3.909 -0.0257 -0.4513 -1.1200
 1831SOL    HW2 5550   4.344   4.781   3.973  1.0627 -2.1796 -0.8172
 1832SOL     OW 5551   2.672   2.712   1.058  0.0521 -0.2928 -0.0056
 1832SOL    HW1 5552   2.729   2.636   1.049 -0.6142 -0.5556 -2.5751
 1832SOL    HW2 5553   2.708   2.778   0.999 -0.6495  0.6019  0.5194
 1833SOL     OW 5554   2.129   1.598   2.035  0.2549  0.3229 -0.1716
 1833SOL    HW1 5555   2.172   1.523   1.993 -0.4163 -0.7045  0.9095
 1833SOL    HW2 5556   2.112   1.568   2.125  0.9760  2.1721  0.6365
 1834SOL     OW 5557   0.914   3.297   3.514 -0.2748  0.0086  0.6132
 1834SOL    HW1 5558   0.966   3.217   3.523 -0.2073  0.0290  0.4093
 1834SOL    HW2 5559   0.962   3.363   3.563 -0.9324 -0.3534  1.7655
 1835SOL     OW 5560   1.157   4.330   3.631 -0.1590  0.2731 -0.1229
 1835SOL    HW1 5561   1.199   4.414   3.615  0.4250 -0.0161 -0.1099
 1835SOL    HW2 5562   1.228   4.267   3.634 -0.5894 -0.2206 -0.0867
 1836SOL     OW 5563   1.803   0.321   2.105  0.1728 -0.2396  0.0275
 1836SOL    HW1 5564   1.785   0.271   2.025 -1.2253  1.7967 -1.0390
 1836SOL    HW2 5565   1.867   0.386   2.078 -0.0737  0.2564  0.6288
 1837SOL     OW 5566   2.052   0.788   0.859 -0.7029 -0.0515 -0.0955
 1837SOL    HW1 5567   2.038   0.882   0.847 -0.6821 -0.0878 -0.4023
 1837SOL    HW2 5568   1.964   0.752   0.869 -0.6545  0.2072  1.6145
 1838SOL     OW 5569   0.510   3.418   1.147 -0.4856 -0.2904  0.2379
 1838SOL    HW1 5570   0.440   3.406   1.211  1.3161 -0.3940  2.3026
 1838SOL    HW2 5571   0.527   3.512   1.148 -1.7394  0.0044 -1.6148
 1839SOL     OW 5572   0.464   1.070   4.242 -0.4605  0.2512  0.2047
 1839SOL    HW1 5573   0.479   1.004   4.310  0.7266 -0.7864 -1.0154
 1839SOL    HW2 5574   0.511   1.147   4.272  0.1295 -0.2255  0.5282
 1840SOL     OW 5575   3.984   2.841   1.787 -0.5964  0.2104  0.1044
 1840SOL    HW1 5576   4.041   2.764   1.785 -0.4975  0.2973 -0.6558
 1840SOL    HW2 5577   4.025   2.900   1.849 -0.3897 -0.1329  0.3004
 1841SOL     OW 5578   3.212   3.902   1.531 -0.1349  0.2399 -0.4304
 1841SOL    HW1 5579   3.167   3.818   1.519  0.0165 -0.2246  1.7746
 1841SOL    HW2 5580   3.180   3.934   1.616  0.2566  2.1463 -0.9595
 1842SOL     OW 5581   3.242   2.454   0.618 -0.1293  0.0714  0.2549
 1842SOL    HW1 5582   3.331   2.428   0.594 -0.8133 -1.9648 -0.3266
 1842SOL    HW2 5583   3.250   2.491   0.706  1.0948 -1.5101  0.8560
 1843SOL     OW 5584   0.290   3.053   4.662  0.2590  0.7083  0.0065
 1843SOL    HW1 5585   0.297   2.984   4.727  2.1870  0.9770  0.1269
 1843SOL    HW2 5586   0.359   3.034   4.599 -1.1686  0.7973 -1.6895
 1844SOL     OW 5587   1.563   1.439   1.744  0.7435 -0.1449  0.2790
 1844SOL    HW1 5588   1.627   1.368   1.751  1.5931  0.3752 -1.5739
 1844SOL    HW2 5589   1.609   1.517   1.775  0.1218 -0.1950  1.3983
 1845SOL     OW 5590   4.546   3.324   4.552  0.2233  0.6283 -1.1348
 1845SOL    HW1 5591   4.511   3.340   4.464 -0.3009  1.8690 -0.7289
 1845SOL    HW2 5592   4.538   3.230   4.563  0.7372  0.3823 -2.5935
 1846SOL     OW 5593   1.759   1.102   1.178 -0.0679  0.0342 -0.1092
 1846SOL    HW1 5594   1.771   1.007   1.180 -1.0603 -0.1057  2.0880
 1846SOL    HW2 5595   1.848   1.137   1.189  0.1212 -0.6777  0.7071
 1847SOL     OW 5596   1.059   2.867   2.618  0.5074  0.4702  0.1099
 1847SOL    HW1 5597   1.135   2.925   2.626 -0.2576  2.1876 -3.4007
 1847SOL    HW2 5598   1.090   2.793   2.566  0.1680  0.3977  0.0076
 1848SOL     OW 5599   3.954   2.490   3.227 -0.7023 -0.2089  0.8939
 1848SOL    HW1 5600   4.010   2.505   3.150 -1.1289 -0.7100  0.4768
 1848SOL    HW2 5601   3.973   2.401   3.254 -1.1298 -0.3028  0.8899
 1849SOL     OW 5602   1.468   1.019   0.949 -0.1277  0.7711  0.3177
 1849SOL    HW1 5603   1.445   0.937   0.994  0.4676  1.3424  1.7365
 1849SOL    HW2 5604   1.395   1.035   0.889 -1.9158  0.9118  2.4019
 1850SOL     OW 5605   4.077   4.035   3.982 -0.0946  1.0707  0.4369
 1850SOL    HW1 5606   4.018   4.030   4.057 -0.1634  1.4641  0.4086
 1850SOL    HW2 5607   4.080   4.127   3.959 -0.8984  0.8281 -0.7141
 1851SOL     OW 5608   3.758   0.450   1.461 -0.1613 -0.3466  0.2874
 1851SOL    HW1 5609   3.745   0.362   1.497  0.1423  0.4504  2.5183
 1851SOL    HW2 5610   3.701   0.506   1.514  1.5670  1.1418  0.6641
 1852SOL     OW 5611   4.788   0.294   3.504  0.2636  0.0979 -0.1593
 1852SOL    HW1 5612   4.875   0.320   3.532 -0.5499  1.1466  1.5350
 1852SOL    HW2 5613   4.778   0.204   3.535 -0.1155  0.7863  1.8243
 1853SOL     OW 5614   1.813   2.031   3.462 -0.1257  0.1192  0.2916
 1853SOL    HW1 5615   1.871   2.030   3.386 -1.3003 -1.0224 -0.6436
 1853SOL    HW2 5616   1.731   2.068   3.430  0.1021  1.9424  1.6524
 1854SOL     OW 5617   0.221   0.109   4.987 -0.0595  0.5844 -0.4456
 1854SOL    HW1 5618   0.293   0.162   5.022 -1.5118  1.9821  0.5755
 1854SOL    HW2 5619   0.192   0.158   4.910  1.3072 -1.0240 -2.0741
 1855SOL     OW 5620   3.331   3.942   2.294 -0.2325 -0.1514  0.1198
 1855SOL    HW1 5621   3.253   3.975   2.251 -0.0835  0.2824  0.1826
 1855SOL    HW2 5622   3.299   3.871   2.350 -0.8573  1.2377  1.5841
 1856SOL     OW 5623   3.011   1.260   0.229  0.3049 -0.0621  0.4574
 1856SOL    HW1 5624   2.971   1.173   0.235  2.4797 -1.1009  0.8938
 1856SOL    HW2 5625   3.088   1.247   0.173  0.4436  1.6907  0.1983
 1857SOL     OW 5626   4.941   2.883   2.332  0.0520  0.5749 -0.2858
 1857SOL    HW1 5627   4.947   2.972   2.367  0.4885  0.5726 -0.3532
 1857SOL    HW2 5628   5.031   2.860   2.308 -0.0369  0.0617 -0.1431
 1858SOL     OW 5629   0.109   0.134   4.152 -0.3507  0.0983  0.5181
 1858SOL    HW1 5630   0.165   0.073   4.201  1.1308 -0.6084 -1.8761
 1858SOL    HW2 5631   0.021   0.095   4.157 -0.2368  0.0149  2.4592
 1859SOL     OW 5632   3.051   0.239   1.525  0.0348 -0.0928 -0.2293
 1859SOL    HW1 5633   3.055   0.278   1.612  1.6618 -0.5984 -0.0504
 1859SOL    HW2 5634   3.099   0.157   1.533 -1.4632 -1.1050 -1.1352
 1860SOL     OW 5635   2.693   1.278   0.010 -0.1121  0.1359 -0.8155
 1860SOL    HW1 5636   2.609   1.308  -0.024 -0.1669  1.2682  0.2394
 1860SOL    HW2 5637   2.684   1.287   0.105  0.7952 -0.8625 -0.6147
 1861SOL     OW 5638   4.469   1.818   4.246  0.5214  0.6258 -0.1388
 1861SOL    HW1 5639   4.420   1.754   4.194 -0.2445 -1.3729  2.7938
 1861SOL    HW2 5640   4.557   1.781   4.254 -0.0016 -0.3223  1.8074
 1862SOL     OW 5641   2.814   0.529   3.203  0.1311  0.2241  1.1187
 1862SOL    HW1 5642   2.805   0.612   3.156  1.3191  0.4955  1.3508
 1862SOL    HW2 5643   2.872   0.549   3.276  0.5682 -0.8494  1.0820
 1863SOL     OW 5644   4.785   2.617   2.018 -0.1719 -0.0327 -0.0694
 1863SOL    HW1 5645   4.846   2.559   2.064  1.9500  1.0328 -1.3770
 1863SOL    HW2 5646   4.841   2.668   1.960 -2.2633  1.6136 -0.7305
 1864SOL     OW 5647   0.389   0.730   3.391  0.5381 -0.0695  0.3142
 1864SOL    HW1 5648   0.359   0.821   3.395 -0.9420 -0.3073 -2.6261
 1864SOL    HW2 5649   0.450   0.728   3.317  2.5614 -1.0290  1.9061
 1865SOL     OW 5650   3.791   3.201   2.960  0.3208 -0.2956  0.5950
 1865SOL    HW1 5651   3.729   3.271   2.943 -0.3708 -1.0821 -0.2101
 1865SOL    HW2 5652   3.751   3.151   3.032  0.9415  0.2760  1.3508
 1866SOL     OW 5653   2.606   2.683   2.826  0.6473 -0.2474 -0.3200
 1866SOL    HW1 5654   2.610   2.595   2.864 -0.2479 -0.2519 -0.2146
 1866SOL    HW2 5655   2.633   2.741   2.897  0.3210 -0.3685 -0.0932
 1867SOL     OW 5656   0.970   2.875   1.190  0.2300 -0.0273 -0.0351
 1867SOL    HW1 5657   0.999   2.926   1.114 -1.2853  0.2316 -0.4664
 1867SOL    HW2 5658   1.034   2.805   1.197 -0.2220 -0.7423 -2.2910
 1868SOL     OW 5659   0.280   2.957   0.795  0.1585  0.1476 -0.1102
 1868SOL    HW1 5660   0.368   2.990   0.817 -0.0561 -0.1995  1.4159
 1868SOL    HW2 5661   0.297   2.883   0.737  0.7367  1.5576 -1.8320
 1869SOL     OW 5662   1.644   1.675   3.522  0.2617  0.0415  0.7649
 1869SOL    HW1 5663   1.655   1.737   3.594 -0.4361  0.0715  0.8610
 1869SOL    HW2 5664   1.549   1.661   3.518  0.4581 -1.6693  1.3032
 1870SOL     OW 5665   4.224   1.112   4.325 -0.1641 -0.1218  0.1387
 1870SOL    HW1 5666   4.161   1.142   4.259  0.4361  0.0423 -0.3688
 1870SOL    HW2 5667   4.309   1.142   4.292  0.3547 -1.5803  0.0754
 1871SOL     OW 5668   1.970   1.802   0.534 -0.0571 -0.3683 -0.2785
 1871SOL    HW1 5669   1.944   1.867   0.469  2.7352  0.9931 -0.1836
 1871SOL    HW2 5670   1.887   1.761   0.561 -1.6678  1.4152 -2.1313
 1872SOL     OW 5671   2.773   3.837   4.221  0.1928 -0.2309  0.9956
 1872SOL    HW1 5672   2.703   3.840   4.157  2.1354  0.4162 -1.2463
 1872SOL    HW2 5673   2.797   3.929   4.235  2.0265 -0.4935 -0.0607
 1873SOL     OW 5674   3.682   3.837   0.134 -0.1167 -0.0882 -0.4835
 1873SOL    HW1 5675   3.778   3.826   0.135 -0.2740 -2.1272 -2.4031
 1873SOL    HW2 5676   3.664   3.889   0.213  2.4447 -0.7231  0.6307
 1874SOL     OW 5677   4.675   1.914   1.317 -0.0820  0.0505 -0.4242
 1874SOL    HW1 5678   4.751   1.952   1.273 -1.5871  0.7051 -2.6065
 1874SOL    HW2 5679   4.620   1.989   1.339 -1.2219 -0.5676 -1.1051
 1875SOL     OW 5680   3.995   0.142   3.853  0.3146 -0.4126  0.3754
 1875SOL    HW1 5681   4.010   0.157   3.947 -0.5390  1.1328  0.3027
 1875SOL    HW2 5682   4.037   0.216   3.810  0.3844 -0.9235 -0.4455
 1876SOL     OW 5683   2.587   4.060   1.227 -0.4095 -0.2170 -0.3872
 1876SOL    HW1 5684   2.625   3.999   1.290  0.3752 -0.1871 -0.8077
 1876SOL    HW2 5685   2.525   4.112   1.277 -0.0842 -0.4549  0.2716
 1877SOL     OW 5686   2.983   1.480   1.114 -0.6546  0.2540 -0.0074
 1877SOL    HW1 5687   2.949   1.558   1.158 -1.5109  0.5605 -1.1420
 1877SOL    HW2 5688   2.988   1.506   1.022  1.3436 -0.2637 -0.0888
 1878SOL     OW 5689   2.243   4.990   0.475 -0.0333 -0.2230 -0.0947
 1878SOL    HW1 5690   2.152   4.990   0.445  0.0027 -0.3565 -0.2031
 1878SOL    HW2 5691   2.289   4.934   0.413  0.2132  0.2210 -0.3219
 1879SOL     OW 5692   0.769   4.288   3.606 -0.3021  0.3178  0.0154
 1879SOL    HW1 5693   0.680   4.322   3.606 -0.3420  0.2432 -0.9481
 1879SOL    HW2 5694   0.781   4.251   3.694 -0.4150  2.3783  0.9403
 1880SOL     OW 5695   2.694   0.803   0.059 -0.0125  0.1866  0.2746
 1880SOL    HW1 5696   2.687   0.708   0.046  1.3796  0.3054 -1.8906
 1880SOL    HW2 5697   2.735   0.813   0.145  0.3314 -1.1744  0.2862
 1881SOL     OW 5698   1.082   2.933   4.360  0.4699  0.0536 -0.0780
 1881SOL    HW1 5699   1.116   2.962   4.276  1.0143 -1.2368 -0.3288
 1881SOL    HW2 5700   1.118   2.995   4.424  2.9330 -0.9456 -0.3955
 1882SOL     OW 5701   4.115   1.431   0.740  0.0596  0.2075  0.7990
 1882SOL    HW1 5702   4.118   1.518   0.700  0.9633 -0.1280  0.0930
 1882SOL    HW2 5703   4.112   1.370   0.666  3.3083 -0.5002  1.0861
 1883SOL     OW 5704   0.122   2.386   1.336 -0.4557 -0.2134  0.0199
 1883SOL    HW1 5705   0.202   2.391   1.387 -1.7983  2.4004  2.0922
 1883SOL    HW2 5706   0.052   2.377   1.401 -2.3140  3.9709 -1.0581
 1884SOL     OW 5707   3.337   0.825   3.130 -0.2835 -0.7152 -0.6272
 1884SOL    HW1 5708   3.317   0.733   3.146  1.1137 -0.9100  0.1725
 1884SOL    HW2 5709   3.432   0.827   3.119 -0.2001  0.7316  0.1461
 1885SOL     OW 5710   2.867   3.835   3.903  0.1990  0.1247  0.1721
 1885SOL    HW1 5711   2.926   3.775   3.857  0.6545 -1.1823  2.3224
 1885SOL    HW2 5712   2.787   3.784   3.919  0.5905 -0.0071  2.0190
 1886SOL     OW 5713   2.294   2.041   0.324 -0.0887 -0.5287  0.2171
 1886SOL    HW1 5714   2.352   1.981   0.276 -1.4627 -1.9027  0.1703
 1886SOL    HW2 5715   2.227   2.065   0.260  0.6789  1.4947  0.0983
 1887SOL     OW 5716   1.273   2.245   4.943 -0.2705  0.7425  0.5586
 1887SOL    HW1 5717   1.217   2.239   4.865  0.2740 -0.3394  0.2371
 1887SOL    HW2 5718   1.300   2.337   4.944 -0.3752  0.8073 -0.4747
 1888SOL     OW 5719   1.792   4.875   1.588  0.1932 -0.3045  0.6416
 1888SOL    HW1 5720   1.748   4.819   1.524 -0.1742  0.1787  0.4725
 1888SOL    HW2 5721   1.825   4.949   1.538  1.8857 -1.0268  0.6341
 1889SOL     OW 5722   0.227   1.247   2.534 -0.2532  0.4339  0.3607
 1889SOL    HW1 5723   0.178   1.205   2.463  0.8123  0.3107 -0.3255
 1889SOL    HW2 5724   0.202   1.339   2.530  0.6276  0.6342 -0.9032
 1890SOL     OW 5725   1.777   0.528   1.290 -0.2886  0.4131 -0.5619
 1890SOL    HW1 5726   1.769   0.455   1.229  1.7683 -1.0391  0.7856
 1890SOL    HW2 5727   1.728   0.501   1.367  1.9644 -0.4447  0.6497
 1891SOL     OW 5728   2.462   0.629   2.047  0.0811 -0.1294  0.6080
 1891SOL    HW1 5729   2.413   0.658   2.125 -0.1869  1.5217 -0.1422
 1891SOL    HW2 5730   2.521   0.561   2.080 -0.7337 -0.1798  2.0611
 1892SOL     OW 5731   2.788   4.744   0.811  1.0026 -0.3475  0.1242
 1892SOL    HW1 5732   2.837   4.673   0.853 -1.4453 -1.1848  1.8588
 1892SOL    HW2 5733   2.704   4.704   0.788  0.2503  1.5395 -0.5788
 1893SOL     OW 5734   3.074   3.304   0.458  0.4532  0.1614  0.6934
 1893SOL    HW1 5735   3.042   3.367   0.393 -0.2299 -0.8351  0.0307
 1893SOL    HW2 5736   3.021   3.226   0.443  1.8000 -0.8368  0.9673
 1894SOL     OW 5737   1.459   2.813   1.188  0.2834 -0.2919 -0.3696
 1894SOL    HW1 5738   1.503   2.728   1.197  0.3654 -0.3409 -1.1697
 1894SOL    HW2 5739   1.529   2.877   1.184  0.2173  0.1300  2.7318
 1895SOL     OW 5740   0.114   1.383   1.553 -0.3163  0.3943 -0.1068
 1895SOL    HW1 5741   0.143   1.445   1.486  1.2296 -0.0103  0.1607
 1895SOL    HW2 5742   0.096   1.437   1.630  1.9075  0.4627  0.4116
 1896SOL     OW 5743   3.876   4.468   0.970 -0.1875 -0.6708  0.6271
 1896SOL    HW1 5744   3.863   4.499   1.059 -0.9757  0.6647  0.0710
 1896SOL    HW2 5745   3.814   4.517   0.917  0.6707 -0.9961 -0.7569
 1897SOL     OW 5746   0.184   2.107   4.054 -0.3988  0.1049  0.0855
 1897SOL    HW1 5747   0.231   2.185   4.084 -0.3399  0.1100 -0.0189
 1897SOL    HW2 5748   0.237   2.034   4.085 -0.2424  0.1124 -0.1566
 1898SOL     OW 5749   1.383   3.315   2.053  0.1685  0.7478 -0.2191
 1898SOL    HW1 5750   1.345   3.399   2.076  1.3385  1.6333 -1.3794
 1898SOL    HW2 5751   1.477   3.332   2.044  0.4995 -0.7805 -0.0363
 1899SOL     OW 5752   0.612   0.538   1.740  0.2378 -0.0330 -0.1533
 1899SOL    HW1 5753   0.685   0.537   1.679  0.0668  0.0665 -0.3634
 1899SOL    HW2 5754   0.643   0.589   1.814  0.9649 -1.3791  0.5033
 1900SOL     OW 5755   1.720   4.865   2.140 -0.0639 -0.5525 -0.2810
 1900SOL    HW1 5756   1.724   4.940   2.199 -2.1032 -0.2805 -0.4052
 1900SOL    HW2 5757   1.754   4.792   2.192  1.9633  0.4016 -0.1639
 1901SOL     OW 5758   4.110   1.722   2.446 -0.2720 -0.0128 -0.5329
 1901SOL    HW1 5759   4.027   1.674   2.443  0.4389 -1.3916  0.5913
 1901SOL    HW2 5760   4.090   1.801   2.496 -0.8156 -0.5317  0.0892
 1902SOL     OW 5761   2.106   2.570   2.738  0.1414 -0.1774 -0.0476
 1902SOL    HW1 5762   2.069   2.616   2.663  0.6425  1.0284  0.4114
 1902SOL    HW2 5763   2.035   2.568   2.802 -0.0230 -0.4404 -0.2398
 1903SOL     OW 5764   3.674   3.098   1.972  0.1514 -0.1035 -0.5848
 1903SOL    HW1 5765   3.734   3.039   2.019  1.4648  0.7006 -1.2022
 1903SOL    HW2 5766   3.710   3.185   1.987 -1.7450  0.5927  0.2898
 1904SOL     OW 5767   3.955   2.020   2.024 -0.1886 -0.1548 -0.2901
 1904SOL    HW1 5768   3.917   1.932   2.026  0.2510 -0.3511 -0.5098
 1904SOL    HW2 5769   4.048   2.006   2.006 -0.3060  0.3975 -1.4618
 1905SOL     OW 5770   2.605   2.193   2.829  0.7209  0.6331  0.4084
 1905SOL    HW1 5771   2.639   2.136   2.898  0.1343 -1.8818 -1.2415
 1905SOL    HW2 5772   2.664   2.269   2.829  1.1483  0.3949  3.1243
 1906SOL     OW 5773   3.732   3.019   0.826  0.2368 -0.4161  0.2660
 1906SOL    HW1 5774   3.795   2.947   0.824  1.5180  0.6795 -0.8670
 1906SOL    HW2 5775   3.666   2.991   0.890  0.8045 -2.4774  0.0362
 1907SOL     OW 5776   3.504   4.743   0.841 -0.0741 -0.2567  0.3076
 1907SOL    HW1 5777   3.451   4.663   0.839  0.7545 -0.8100  0.0948
 1907SOL    HW2 5778   3.465   4.797   0.910 -0.3897 -1.0175  0.7263
 1908SOL     OW 5779   3.884   4.784   1.538 -0.2213 -0.3196 -0.0825
 1908SOL    HW1 5780   3.888   4.808   1.631 -1.2849  1.0320 -0.3489
 1908SOL    HW2 5781   3.962   4.824   1.500 -0.2811 -0.0706  0.0552
 1909SOL     OW 5782   2.299   0.241   2.928 -0.3388 -0.0022 -0.3278
 1909SOL    HW1 5783   2.375   0.295   2.905 -0.6204  0.4425 -0.2364
 1909SOL    HW2 5784   2.315   0.157   2.885  1.3130 -0.7129  1.5151
 1910SOL     OW 5785   3.417   0.642   2.834 -0.4249  0.4820  0.3184
 1910SOL    HW1 5786   3.477   0.569   2.843 -0.2370  0.0502 -3.0088
 1910SOL    HW2 5787   3.474   0.719   2.822 -0.5516  0.5406  0.0717
 1911SOL     OW 5788   4.287   4.340   1.790 -0.6181  0.0937 -0.5264
 1911SOL    HW1 5789   4.281   4.372   1.700 -0.2794  2.7687  0.3020
 1911SOL    HW2 5790   4.352   4.398   1.832 -3.2344  1.2837  2.2885
 1912SOL     OW 5791   4.263   0.401   4.186 -0.3188  0.0529 -0.6862
 1912SOL    HW1 5792   4.303   0.428   4.103  0.5403  0.0646 -0.2862
 1912SOL    HW2 5793   4.338   0.378   4.242 -0.8508  0.4578  0.2237
 1913SOL     OW 5794   3.051   3.252   3.413  0.3649  0.4569  0.1891
 1913SOL    HW1 5795   3.116   3.253   3.342  1.5383  1.7821  1.2387
 1913SOL    HW2 5796   3.075   3.176   3.465 -0.5238 -0.5460 -0.8078
 1914SOL     OW 5797   1.858   1.955   3.754 -0.1800 -0.3287 -0.3250
 1914SOL    HW1 5798   1.897   2.031   3.710 -1.2107 -0.0211 -0.7410
 1914SOL    HW2 5799   1.924   1.928   3.817 -0.3761  1.8759  0.9304
 1915SOL     OW 5800   3.574   4.716   4.388  0.4084 -0.2619  0.1074
 1915SOL    HW1 5801   3.508   4.662   4.431  0.7983 -0.9002 -0.0645
 1915SOL    HW2 5802   3.658   4.679   4.418  0.7110 -1.3000 -1.8272
 1916SOL     OW 5803   1.474   2.034   1.492  0.7738  0.1487  0.0836
 1916SOL    HW1 5804   1.533   2.024   1.567 -0.0120 -1.2135  0.5572
 1916SOL    HW2 5805   1.406   1.968   1.507  0.4333  0.0719 -1.6704
 1917SOL     OW 5806   2.389   3.174   0.294  0.5089 -0.5986 -0.6088
 1917SOL    HW1 5807   2.469   3.225   0.284  0.9458 -1.4811 -1.8433
 1917SOL    HW2 5808   2.319   3.233   0.267  0.6423  0.3956  1.0975
 1918SOL     OW 5809   2.079   0.898   1.374 -0.2110  0.2159  0.3381
 1918SOL    HW1 5810   2.148   0.954   1.410  0.5988 -0.9781  0.7131
 1918SOL    HW2 5811   2.093   0.899   1.279 -0.0560  0.4683  0.3649
 1919SOL     OW 5812   1.945   3.427   1.359  0.0889  0.7176  0.3440
 1919SOL    HW1 5813   1.965   3.484   1.433 -0.7665  2.7914 -0.9511
 1919SOL    HW2 5814   2.012   3.446   1.294  0.9810 -1.2680  0.5934
 1920SOL     OW 5815   2.685   1.519   1.487  0.0055  0.3144 -0.0349
 1920SOL    HW1 5816   2.658   1.431   1.513  0.5464  0.1333 -0.0770
 1920SOL    HW2 5817   2.656   1.528   1.397  1.6060 -0.5334 -0.6685
 1921SOL     OW 5818   2.238   0.983   2.432  0.1455  0.1268 -0.8431
 1921SOL    HW1 5819   2.254   0.915   2.497 -0.0432  2.8183  2.3057
 1921SOL    HW2 5820   2.160   0.953   2.384 -1.0631 -1.0803  1.6693
 1922SOL     OW 5821   4.408   3.988   4.037  0.6464  0.0904  0.4525
 1922SOL    HW1 5822   4.341   3.923   4.059 -1.2567  1.5432 -0.8052
 1922SOL    HW2 5823   4.371   4.038   3.964  2.3738  2.0974  0.8477
 1923SOL     OW 5824   0.673   3.670   3.898 -0.6734  0.4878 -0.1285
 1923SOL    HW1 5825   0.652   3.703   3.986 -0.0598 -1.0453  0.6333
 1923SOL    HW2 5826   0.711   3.745   3.853  0.6793  0.8598  1.5365
 1924SOL     OW 5827   2.843   3.773   0.197 -0.0867 -0.2720  0.1089
 1924SOL    HW1 5828   2.881   3.861   0.196  1.0549 -0.7139  1.5387
 1924SOL    HW2 5829   2.904   3.721   0.249 -0.2218 -2.1605 -1.5086
 1925SOL     OW 5830   2.044   2.752   1.921 -0.0989 -0.1948  0.6987
 1925SOL    HW1 5831   2.109   2.801   1.871  1.0406  0.5100  2.7404
 1925SOL    HW2 5832   2.084   2.666   1.934  0.5525  0.2824  2.0702
 1926SOL     OW 5833   3.854   1.215   2.639  0.3003 -0.1677  0.0366
 1926SOL    HW1 5834   3.928   1.271   2.663  0.2812 -0.4676  0.8341
 1926SOL    HW2 5835   3.798   1.272   2.586 -0.7384  1.2966  2.5042
 1927SOL     OW 5836   0.994   0.421   2.212  0.2482  0.0003  0.2855
 1927SOL    HW1 5837   0.920   0.431   2.152 -1.5838 -1.9937  2.0180
 1927SOL    HW2 5838   0.992   0.500   2.265 -0.3119  0.2277 -0.0615
 1928SOL     OW 5839   1.593   3.373   0.328 -0.0607 -0.2174  0.6133
 1928SOL    HW1 5840   1.659   3.414   0.383  0.3081  0.7617 -0.5041
 1928SOL    HW2 5841   1.562   3.444   0.271 -0.4070 -1.1770 -0.4362
 1929SOL     OW 5842   0.602   4.559   0.218 -0.0480 -0.7044 -0.1483
 1929SOL    HW1 5843   0.667   4.511   0.270  0.1370 -1.0101 -0.6547
 1929SOL    HW2 5844   0.520   4.546   0.265  0.4661  0.8470  1.2761
 1930SOL     OW 5845   3.004   1.946   4.837 -0.1468 -0.0328  0.2194
 1930SOL    HW1 5846   3.031   1.855   4.842  0.4887  0.1416  0.1592
 1930SOL    HW2 5847   2.949   1.959   4.914 -1.4207 -0.8269 -0.5350
 1931SOL     OW 5848   0.011   3.073   3.110 -0.6713  0.5576 -0.4269
 1931SOL    HW1 5849   0.060   3.154   3.103 -0.7378  0.7228  0.7566
 1931SOL    HW2 5850   0.066   3.007   3.067  0.7974  0.6578  1.1782
 1932SOL     OW 5851   2.186   0.430   2.754  0.3558 -0.1648 -0.3376
 1932SOL    HW1 5852   2.092   0.427   2.736 -0.1945  1.0819  1.9840
 1932SOL    HW2 5853   2.197   0.378   2.834  1.3557  0.9971  0.3183
 1933SOL     OW 5854   3.325   3.747   2.544 -0.0611  0.2275 -0.2821
 1933SOL    HW1 5855   3.292   3.771   2.631 -1.7340  1.6910 -1.2640
 1933SOL    HW2 5856   3.413   3.785   2.541 -0.1345  0.5053  0.6232
 1934SOL     OW 5857   0.278   0.633   2.260  0.0615 -1.2810  0.0963
 1934SOL    HW1 5858   0.340   0.645   2.331 -0.6426 -0.3249  0.5688
 1934SOL    HW2 5859   0.296   0.705   2.199 -2.4757  0.8827  1.6801
 1935SOL     OW 5860   1.563   1.161   0.393 -0.2237 -0.2911 -0.7065
 1935SOL    HW1 5861   1.541   1.201   0.477  1.5124 -0.0845 -0.2964
 1935SOL    HW2 5862   1.513   1.210   0.328 -1.2237 -0.1369  0.1571
 1936SOL     OW 5863   0.389   3.068   2.236 -0.1486 -0.2707 -0.1717
 1936SOL    HW1 5864   0.369   3.035   2.323  0.4028  0.9285  0.4287
 1936SOL    HW2 5865   0.305   3.076   2.193 -0.4621 -0.4689  0.3950
 1937SOL     OW 5866   4.819   4.706   3.216 -0.3034  0.0224 -0.6510
 1937SOL    HW1 5867   4.865   4.724   3.298  1.0985 -2.1790 -0.8853
 1937SOL    HW2 5868   4.742   4.764   3.218 -1.0186 -0.8654  2.7984
 1938SOL     OW 5869   1.160   4.271   0.543  0.0117 -0.4060 -0.0122
 1938SOL    HW1 5870   1.246   4.306   0.517 -0.3017 -0.2673 -0.8888
 1938SOL    HW2 5871   1.131   4.329   0.613  0.6024 -0.4107  0.2440
 1939SOL     OW 5872   1.867   0.594   4.468 -0.4287  0.3697  0.1486
 1939SOL    HW1 5873   1.891   0.623   4.556  3.9402 -0.9987 -0.3732
 1939SOL    HW2 5874   1.813   0.666   4.433 -0.9726  1.6659  3.3089
 1940SOL     OW 5875   4.950   3.526   2.072  0.0521  0.2275 -0.4973
 1940SOL    HW1 5876   4.914   3.600   2.023  0.5980  0.7456 -0.1293
 1940SOL    HW2 5877   4.933   3.450   2.017 -1.1996  0.5170 -0.5465
 1941SOL     OW 5878   1.622   4.079   0.248  0.0345  0.0313 -0.1512
 1941SOL    HW1 5879   1.567   4.005   0.272  1.0026 -0.4032  0.7558
 1941SOL    HW2 5880   1.566   4.155   0.260 -0.3716 -0.4043  0.7708
 1942SOL     OW 5881   1.033   4.515   4.830  0.1069  0.3042 -0.8910
 1942SOL    HW1 5882   0.997   4.582   4.771  2.4268  1.5533 -0.9994
 1942SOL    HW2 5883   1.000   4.539   4.916 -0.8461  0.2693 -1.2327
 1943SOL     OW 5884   4.488   1.503   4.133  0.3705  0.1034 -0.5497
 1943SOL    HW1 5885   4.470   1.498   4.039  1.1790  0.3843 -0.7230
 1943SOL    HW2 5886   4.573   1.547   4.139 -0.7748  2.3530  0.4016
 1944SOL     OW 5887   2.775   4.422   1.297 -0.6739 -0.0210 -0.6841
 1944SOL    HW1 5888   2.848   4.473   1.261 -1.3824  1.2090 -0.4430
 1944SOL    HW2 5889   2.811   4.335   1.311  0.5258  0.3542 -1.3092
 1945SOL     OW 5890   0.921   0.178   1.912 -0.1764  0.6039  0.3876
 1945SOL    HW1 5891   0.866   0.137   1.845  2.7865  0.0577 -1.9362
 1945SOL    HW2 5892   0.907   0.125   1.990 -4.4645  1.8057  0.6980
 1946SOL     OW 5893   1.374   4.878   1.431  0.8326 -0.1323  0.3083
 1946SOL    HW1 5894   1.380   4.924   1.348  0.8111 -1.6468 -0.5698
 1946SOL    HW2 5895   1.281   4.878   1.452  0.7570 -0.3316 -0.0194
 1947SOL     OW 5896   2.595   3.804   2.602 -0.0526  0.1341 -0.3130
 1947SOL    HW1 5897   2.552   3.847   2.676  1.0449  0.2674  0.2785
 1947SOL    HW2 5898   2.572   3.857   2.526 -1.6965 -0.3463 -0.1924
 1948SOL     OW 5899   1.364   1.530   0.088  0.3364  0.3059 -0.2628
 1948SOL    HW1 5900   1.343   1.611   0.042  1.3448 -0.3269 -1.9463
 1948SOL    HW2 5901   1.280   1.500   0.122 -0.0856  1.9245  0.2003
 1949SOL     OW 5902   1.730   3.570   0.726  0.7683 -0.9317  0.2859
 1949SOL    HW1 5903   1.679   3.597   0.650  0.8154 -0.0384  0.5601
 1949SOL    HW2 5904   1.819   3.561   0.693  1.0739  0.8996  0.5181
 1950SOL     OW 5905   2.496   4.696   1.864  0.2301 -0.2923 -0.5187
 1950SOL    HW1 5906   2.447   4.766   1.906 -1.1202  0.1157 -2.6113
 1950SOL    HW2 5907   2.554   4.742   1.803  1.5937 -0.8939  0.2765
 1951SOL     OW 5908   4.576   4.359   1.369 -0.2336  0.0101 -0.1265
 1951SOL    HW1 5909   4.602   4.342   1.459  1.3505  0.1247 -0.5253
 1951SOL    HW2 5910   4.648   4.411   1.333 -1.0058  0.2679 -1.3525
 1952SOL     OW 5911   0.857   4.541   3.162 -0.1036 -0.2620  0.5972
 1952SOL    HW1 5912   0.903   4.515   3.241  2.5766  0.1979 -0.6849
 1952SOL    HW2 5913   0.864   4.637   3.162 -1.7770 -0.1134  0.7149
 1953SOL     OW 5914   1.703   1.276   0.685  0.3241  0.1167 -0.0863
 1953SOL    HW1 5915   1.608   1.271   0.679  0.3787 -0.6973 -0.4682
 1953SOL    HW2 5916   1.725   1.221   0.761  0.4119  1.4053  0.8639
 1954SOL     OW 5917   3.556   0.290   4.773 -0.0686 -0.2273  0.3984
 1954SOL    HW1 5918   3.464   0.269   4.760  0.1381 -0.4752 -0.7326
 1954SOL    HW2 5919   3.603   0.211   4.746  0.4906  0.0031  0.6758
 1955SOL     OW 5920   4.867   2.263   1.441  0.6256  0.0719  0.1150
 1955SOL    HW1 5921   4.890   2.179   1.399 -0.6373  0.4963 -1.5273
 1955SOL    HW2 5922   4.914   2.261   1.524  2.0000 -1.5260 -0.6238
 1956SOL     OW 5923   0.458   0.757   1.463  0.1837  0.0423  0.4028
 1956SOL    HW1 5924   0.500   0.773   1.547 -0.9801  0.7991  0.8669
 1956SOL    HW2 5925   0.499   0.677   1.430  1.3637  0.2903  1.2079
 1957SOL     OW 5926   0.383   4.324   3.074 -0.5609 -0.5403  0.2636
 1957SOL    HW1 5927   0.466   4.370   3.060 -0.2074 -1.0341  0.6781
 1957SOL    HW2 5928   0.317   4.393   3.077 -0.1871 -0.1520 -0.2248
 1958SOL     OW 5929   4.725   4.157   3.692 -0.0603 -0.2856  0.0374
 1958SOL    HW1 5930   4.784   4.186   3.622  0.8952 -0.3848  0.7943
 1958SOL    HW2 5931   4.703   4.067   3.669 -0.7109  0.0631 -0.7644
 1959SOL     OW 5932   2.377   2.353   0.587 -0.1883  0.0135  0.0865
 1959SOL    HW1 5933   2.288   2.318   0.578  0.7282 -2.6872  0.4051
 1959SOL    HW2 5934   2.394   2.348   0.682  0.1307  1.0150  0.0888
 1960SOL     OW 5935   0.459   4.720   4.268  0.2708 -0.1002 -0.1691
 1960SOL    HW1 5936   0.411   4.760   4.195  0.2932  1.2557  0.5259
 1960SOL    HW2 5937   0.544   4.764   4.267  0.5781 -0.6858  0.1530
 1961SOL     OW 5938   0.173   2.957   1.533  0.0354 -0.1512  0.1135
 1961SOL    HW1 5939   0.262   2.965   1.498 -0.0843  3.2836  0.2530
 1961SOL    HW2 5940   0.177   2.999   1.619 -1.3433 -1.7166  1.0093
 1962SOL     OW 5941   2.659   4.547   0.468 -0.2264  0.2797  0.0818
 1962SOL    HW1 5942   2.705   4.616   0.419 -1.0094  0.2613 -0.7094
 1962SOL    HW2 5943   2.572   4.543   0.428  0.2086 -2.0647 -0.7887
 1963SOL     OW 5944   0.833   0.063   1.659  0.1831  0.5868 -0.2933
 1963SOL    HW1 5945   0.808   0.093   1.571 -0.4023  2.2469  0.3981
 1963SOL    HW2 5946   0.925   0.039   1.651 -0.1710 -0.4446 -1.6212
 1964SOL     OW 5947   1.234   3.677   0.339 -0.4032 -0.1803  0.1208
 1964SOL    HW1 5948   1.279   3.628   0.408  2.1329  1.5624 -0.1366
 1964SOL    HW2 5949   1.176   3.737   0.385 -0.2273 -0.4049  0.6412
 1965SOL     OW 5950   0.301   1.611   2.952 -0.0137 -0.1892  0.0025
 1965SOL    HW1 5951   0.215   1.588   2.917  0.3384 -0.8677 -0.4505
 1965SOL    HW2 5952   0.306   1.706   2.944 -0.2376 -0.2617 -1.1190
 1966SOL     OW 5953   2.622   1.643   4.793  0.1666  0.1738 -0.4271
 1966SOL    HW1 5954   2.675   1.563   4.794 -0.1951 -0.1163  2.3019
 1966SOL    HW2 5955   2.652   1.691   4.715  0.9205 -2.2311 -1.7091
 1967SOL     OW 5956   1.446   0.314   3.920 -0.2665  0.4786 -0.2191
 1967SOL    HW1 5957   1.354   0.335   3.932 -1.0470 -0.9615 -2.8959
 1967SOL    HW2 5958   1.476   0.377   3.855 -0.0001 -0.4933 -1.0516
 1968SOL     OW 5959   1.722   1.089   0.889  0.4347 -0.2751 -0.0537
 1968SOL    HW1 5960   1.631   1.059   0.889  0.6434 -0.9221 -0.4825
 1968SOL    HW2 5961   1.737   1.118   0.979 -0.0121 -0.7544  0.1851
 1969SOL     OW 5962   1.820   3.942   0.802  0.1997 -0.2758 -0.1027
 1969SOL    HW1 5963   1.787   3.949   0.712 -2.1095 -0.8004  0.6287
 1969SOL    HW2 5964   1.915   3.940   0.792  0.0041 -1.7943 -2.6552
 1970SOL     OW 5965   3.776   2.997   1.676 -0.1527 -0.2653 -0.5933
 1970SOL    HW1 5966   3.713   2.992   1.748  0.6621 -1.2867  0.0828
 1970SOL    HW2 5967   3.841   2.931   1.698 -0.2368 -1.0635 -2.6179
 1971SOL     OW 5968   2.788   4.688   2.953  0.0735 -0.1125  0.5945
 1971SOL    HW1 5969   2.703   4.704   2.994 -0.0715 -0.9889  0.6497
 1971SOL    HW2 5970   2.781   4.600   2.916  2.0172 -1.5455  3.3043
 1972SOL     OW 5971   0.214   3.547   2.235  0.0979 -0.2195  0.0208
 1972SOL    HW1 5972   0.182   3.518   2.320 -1.5851 -0.0490 -0.5028
 1972SOL    HW2 5973   0.140   3.533   2.176  1.0099  0.2609 -1.2889
 1973SOL     OW 5974   0.723   3.224   0.679  0.3372 -0.3473  0.4446
 1973SOL    HW1 5975   0.768   3.165   0.618 -0.7574 -2.6637  1.7354
 1973SOL    HW2 5976   0.769   3.307   0.670  1.1534 -0.9892 -2.4258
 1974SOL     OW 5977   1.597   2.034   3.277  0.5637  0.3468  0.1796
 1974SOL    HW1 5978   1.547   1.971   3.330  0.8397  0.9841  1.2208
 1974SOL    HW2 5979   1.535   2.063   3.210 -0.1419  0.3393  0.8140
 1975SOL     OW 5980   4.126   2.408   4.394 -0.6707  0.1255 -0.4368
 1975SOL    HW1 5981   4.062   2.434   4.328 -1.3508  0.2592  0.2718
 1975SOL    HW2 5982   4.199   2.469   4.381 -1.1257  0.6563 -0.5522
 1976SOL     OW 5983   0.144   1.806   3.715  0.2179  0.3176  0.1076
 1976SOL    HW1 5984   0.227   1.846   3.687 -0.2064  0.4487 -1.0368
 1976SOL    HW2 5985   0.168   1.720   3.748  0.8188  0.3569 -0.2161
 1977SOL     OW 5986   1.098   1.902   1.828  0.2071 -0.1861 -0.5854
 1977SOL    HW1 5987   1.175   1.951   1.857  0.3757 -1.3885  1.1038
 1977SOL    HW2 5988   1.131   1.814   1.809 -0.6434 -0.5417 -0.4450
 1978SOL     OW 5989   4.915   0.800   4.925 -1.1122 -0.4007  0.3470
 1978SOL    HW1 5990   4.913   0.876   4.982 -1.0897  0.1749 -0.3983
 1978SOL    HW2 5991   4.840   0.747   4.952 -0.4007 -0.7619  1.7132
 1979SOL     OW 5992   3.869   3.396   4.382 -0.3808  0.0895  0.1476
 1979SOL    HW1 5993   3.782   3.385   4.420  0.0519 -3.9496  0.4840
 1979SOL    HW2 5994   3.856   3.378   4.289 -0.0021 -0.0478  0.1211
 1980SOL     OW 5995   3.369   0.380   0.282  0.1118  0.5285  0.0453
 1980SOL    HW1 5996   3.450   0.329   0.281 -0.4078 -0.4538  2.0967
 1980SOL    HW2 5997   3.347   0.393   0.190  1.4737 -1.0399 -0.5428
 1981SOL     OW 5998   0.574   2.664   0.828  0.2378  0.6161 -0.5981
 1981SOL    HW1 5999   0.611   2.580   0.800  0.6619  1.0917 -1.5223
 1981SOL    HW2 6000   0.491   2.671   0.781  0.0204  0.5401 -0.2259
 1982SOL     OW 6001   3.003   4.603   2.716  0.4204  0.4889 -0.6573
 1982SOL    HW1 6002   3.010   4.683   2.769  0.0302 -0.1506  0.3779
 1982SOL    HW2 6003   2.917   4.568   2.736 -0.1800  0.7732 -2.5381
 1983SOL     OW 6004   4.830   0.513   1.129 -0.2567  0.7173  0.4122
 1983SOL    HW1 6005   4.828   0.513   1.033  1.5427  0.5085  0.3359
 1983SOL    HW2 6006   4.775   0.587   1.155 -0.3639  1.0807 -0.8058
 1984SOL     OW 6007   3.730   3.367   3.853  0.3557  1.2633 -0.3429
 1984SOL    HW1 6008   3.729   3.370   3.757  3.2013 -0.3314 -0.4982
 1984SOL    HW2 6009   3.688   3.284   3.875 -1.1168  2.0340 -0.1010
 1985SOL     OW 6010   2.872   0.049   0.796  0.0670 -0.2909 -0.2443
 1985SOL    HW1 6011   2.853  -0.044   0.779  0.7722 -0.9628  2.1330
 1985SOL    HW2 6012   2.960   0.048   0.835 -1.1241  0.9522  2.7356
 1986SOL     OW 6013   3.204   3.830   1.833  0.3022 -0.2963 -0.5742
 1986SOL    HW1 6014   3.273   3.790   1.781 -0.8095 -2.1404 -0.7501
 1986SOL    HW2 6015   3.193   3.770   1.908 -0.2779  0.6058  0.0844
 1987SOL     OW 6016   1.244   4.022   2.377 -0.6883  0.0390 -0.1586
 1987SOL    HW1 6017   1.205   4.030   2.290 -1.4326 -0.0256  0.1644
 1987SOL    HW2 6018   1.173   4.045   2.438 -0.0265  0.6349  0.4174
 1988SOL     OW 6019   2.613   1.332   4.021 -0.5423  0.4115 -0.1529
 1988SOL    HW1 6020   2.680   1.339   4.089 -1.1308  3.0932  0.2624
 1988SOL    HW2 6021   2.599   1.422   3.993 -0.5277 -0.5337 -3.6698
 1989SOL     OW 6022   4.056   4.802   4.146 -0.2148 -0.3748 -0.2004
 1989SOL    HW1 6023   4.006   4.758   4.076  0.1037 -0.1061 -0.6042
 1989SOL    HW2 6024   4.100   4.731   4.193 -1.1915 -0.6444  0.3384
 1990SOL     OW 6025   2.887   2.334   0.952 -0.2863  0.1127  0.3721
 1990SOL    HW1 6026   2.901   2.287   0.869  1.6983  0.7399  0.3107
 1990SOL    HW2 6027   2.969   2.325   0.999  0.0469  3.1426  0.5467
 1991SOL     OW 6028   1.127   1.421   3.131 -0.4788 -0.7265 -0.5068
 1991SOL    HW1 6029   1.110   1.509   3.096  1.2270  0.3593  1.1961
 1991SOL    HW2 6030   1.058   1.407   3.196 -2.0907 -1.6633 -2.3058
 1992SOL     OW 6031   2.112   2.882   1.118  0.3548 -0.7742  0.2269
 1992SOL    HW1 6032   2.028   2.922   1.094  0.2546  0.1474  1.9920
 1992SOL    HW2 6033   2.141   2.839   1.037 -1.4620 -0.5198 -0.6274
 1993SOL     OW 6034   0.935   0.437   3.325  0.6170 -0.3206  0.1782
 1993SOL    HW1 6035   0.987   0.493   3.383  2.9083 -1.2219 -0.8786
 1993SOL    HW2 6036   0.894   0.498   3.263 -0.8718  0.5375  1.9160
 1994SOL     OW 6037   4.995   2.388   0.420 -0.1232 -0.4315 -0.4555
 1994SOL    HW1 6038   4.935   2.322   0.457 -0.6055  1.7547  3.1659
 1994SOL    HW2 6039   4.940   2.465   0.406  0.7212 -0.2228 -3.2144
 1995SOL     OW 6040   1.706   0.307   4.504 -0.2046  0.0681  0.2184
 1995SOL    HW1 6041   1.684   0.214   4.509 -0.1119  0.1118  2.0324
 1995SOL    HW2 6042   1.664   0.337   4.423  1.2467 -1.9048 -1.3731
 1996SOL     OW 6043   4.883   1.028   3.927 -0.4357  0.0474 -0.3163
 1996SOL    HW1 6044   4.847   0.989   4.006 -0.9373 -0.8798 -0.9862
 1996SOL    HW2 6045   4.837   1.111   3.918 -0.5139  0.0670  0.2556
 1997SOL     OW 6046   1.843   3.493   2.763 -0.0883 -0.3088  0.1475
 1997SOL    HW1 6047   1.896   3.413   2.771  0.1028 -0.0206  2.2340
 1997SOL    HW2 6048   1.755   3.461   2.740  0.1807 -1.0394  0.1042
 1998SOL     OW 6049   3.943   4.823   0.938 -0.0586 -0.2975  0.1429
 1998SOL    HW1 6050   3.971   4.905   0.897 -0.3288  0.4683  1.4565
 1998SOL    HW2 6051   3.944   4.759   0.866  1.0655  0.6247 -0.7062
 1999SOL     OW 6052   0.191   4.668   4.359  0.1901 -0.5192  0.0829
 1999SOL    HW1 6053   0.200   4.574   4.349 -0.0815 -0.5473  0.0935
 1999SOL    HW2 6054   0.280   4.702   4.354  0.2429 -0.7292 -0.4212
 2000SOL     OW 6055   1.743   2.491   3.367 -0.4499  0.1242  0.2100
 2000SOL    HW1 6056   1.725   2.532   3.452 -0.7621  0.6150 -0.0883
 2000SOL    HW2 6057   1.836   2.467   3.371 -0.3983  0.3730  0.5936
 2001SOL     OW 6058   1.077   2.340   0.628 -0.3630  0.5669 -0.3344
 2001SOL    HW1 6059   1.094   2.312   0.717 -0.4184  1.6498  0.0383
 2001SOL    HW2 6060   1.061   2.259   0.579  0.1064 -0.0609  0.5355
 2002SOL     OW 6061   0.847   2.123   4.988 -0.2813  0.3572  0.2600
 2002SOL    HW1 6062   0.781   2.054   4.998  0.3576 -0.1903  0.8609
 2002SOL    HW2 6063   0.829   2.162   4.903 -0.3874 -0.8646 -0.3030
 2003SOL     OW 6064   2.942   0.782   4.079  0.2965 -0.2433  0.1184
 2003SOL    HW1 6065   3.031   0.790   4.045  0.1457 -1.8900 -0.7892
 2003SOL    HW2 6066   2.953   0.766   4.173  1.0563 -1.8570 -0.2118
 2004SOL     OW 6067   2.200   0.170   0.865  0.4960 -0.5456 -0.4850
 2004SOL    HW1 6068   2.231   0.144   0.778  4.6621  0.5906  0.4442
 2004SOL    HW2 6069   2.231   0.259   0.876 -0.3616 -0.4786  2.0313
 2005SOL     OW 6070   4.589   2.160   1.443 -0.3746  0.4065  0.0665
 2005SOL    HW1 6071   4.651   2.228   1.416 -0.4373  0.3296 -0.2837
 2005SOL    HW2 6072   4.504   2.204   1.443 -0.2604  0.6331  1.0089
 2006SOL     OW 6073   3.109   4.896   4.711  0.0649  0.0756  0.0499
 2006SOL    HW1 6074   3.151   4.861   4.632 -0.5058  2.4753 -1.4334
 2006SOL    HW2 6075   3.016   4.876   4.700  0.0132  0.2299  0.1981
 2007SOL     OW 6076   0.733   3.689   2.052  0.7776  0.3469 -0.6680
 2007SOL    HW1 6077   0.734   3.767   1.998 -0.0971  0.5643 -0.4022
 2007SOL    HW2 6078   0.641   3.680   2.078  1.2471  0.6066  1.2645
 2008SOL     OW 6079   3.280   3.057   4.668  0.2269 -0.1331 -0.6509
 2008SOL    HW1 6080   3.255   2.971   4.702 -0.1576  0.4294  0.5525
 2008SOL    HW2 6081   3.298   3.109   4.746  0.0464  1.0075 -1.3441
 2009SOL     OW 6082   3.703   4.833   1.127  0.1769  0.0758 -0.2934
 2009SOL    HW1 6083   3.623   4.868   1.086  0.6735  0.7891 -0.6695
 2009SOL    HW2 6084   3.761   4.813   1.054  0.7540  0.5759  0.0243
 2010SOL     OW 6085   0.385   3.205   3.619  0.1840 -0.4085  0.4147
 2010SOL    HW1 6086   0.471   3.203   3.576 -0.1609 -0.7345 -0.2729
 2010SOL    HW2 6087   0.366   3.113   3.637 -0.3423 -0.3963 -0.0831
 2011SOL     OW 6088   3.808   4.839   0.312 -0.5574  0.2989  0.3780
 2011SOL    HW1 6089   3.801   4.823   0.406 -0.9899  1.2380  0.5230
 2011SOL    HW2 6090   3.733   4.792   0.274 -1.0255  0.8230  0.6369
 2012SOL     OW 6091   3.265   4.174   2.489 -0.4014  0.0155  0.0803
 2012SOL    HW1 6092   3.213   4.147   2.414 -0.3651  1.8545 -0.6522
 2012SOL    HW2 6093   3.354   4.148   2.467 -0.2743  1.1693 -0.8652
 2013SOL     OW 6094   4.264   1.142   0.301 -0.8214  0.2616 -0.0610
 2013SOL    HW1 6095   4.223   1.075   0.246  0.8054 -0.6137 -0.2538
 2013SOL    HW2 6096   4.333   1.180   0.247  0.8691 -0.6772  1.3285
 2014SOL     OW 6097   2.635   2.298   0.837 -0.2899  0.4048 -0.6314
 2014SOL    HW1 6098   2.688   2.291   0.758 -0.2225 -2.9472 -0.4411
 2014SOL    HW2 6099   2.699   2.312   0.907  0.3560 -2.1550 -0.5875
 2015SOL     OW 6100   0.377   4.047   3.881 -0.3783 -0.3405  0.0723
 2015SOL    HW1 6101   0.399   4.081   3.795 -2.0436 -2.1767 -1.1794
 2015SOL    HW2 6102   0.458   4.053   3.931  0.6374  0.7553 -1.6117
 2016SOL     OW 6103   3.474   0.351   4.172 -0.0953 -0.9819 -0.0354
 2016SOL    HW1 6104   3.438   0.263   4.185  0.0443 -1.2703 -1.5045
 2016SOL    HW2 6105   3.397   0.408   4.168 -0.1958 -1.0580  0.6949
 2017SOL     OW 6106   0.790   2.307   2.749 -0.0334  0.0593 -0.5445
 2017SOL    HW1 6107   0.859   2.241   2.748  0.5158  0.5576  1.0508
 2017SOL    HW2 6108   0.781   2.335   2.658  0.0197 -1.8917 -1.1841
 2018SOL     OW 6109   2.781   3.686   3.257  0.0613 -0.4856  0.1039
 2018SOL    HW1 6110   2.837   3.609   3.255 -0.8003 -1.2332  2.3068
 2018SOL    HW2 6111   2.692   3.651   3.262 -0.3447  0.6339  1.1901
 2019SOL     OW 6112   0.538   2.380   4.273 -0.4016  0.0034  0.2928
 2019SOL    HW1 6113   0.546   2.310   4.338 -0.9910 -0.3470  0.0047
 2019SOL    HW2 6114   0.507   2.455   4.322 -3.7272 -1.0407  0.0303
 2020SOL     OW 6115   1.348   2.287   1.594  0.5676  0.4298 -0.1132
 2020SOL    HW1 6116   1.365   2.209   1.542 -1.1428 -0.3944  0.4884
 2020SOL    HW2 6117   1.412   2.351   1.563  1.3090 -0.8627 -1.3620
 2021SOL     OW 6118   1.696   1.606   2.719 -0.3427 -0.0102 -0.0689
 2021SOL    HW1 6119   1.698   1.534   2.782 -1.1394 -0.6561 -0.7625
 2021SOL    HW2 6120   1.782   1.646   2.726  0.1545 -1.0959  0.2606
 2022SOL     OW 6121   0.783   0.100   0.179 -0.1487 -0.4300 -0.4861
 2022SOL    HW1 6122   0.817   0.022   0.221  0.1365 -0.0027  0.0957
 2022SOL    HW2 6123   0.688   0.095   0.190 -0.0711 -0.2902  0.2779
 2023SOL     OW 6124   1.208   1.558   2.846 -0.5398  0.0368 -0.0931
 2023SOL    HW1 6125   1.260   1.637   2.858  0.2890 -0.3351 -1.0039
 2023SOL    HW2 6126   1.145   1.559   2.917  1.2806  0.0706  1.5986
 2024SOL     OW 6127   4.215   4.276   2.732 -0.4604 -0.0346  0.1173
 2024SOL    HW1 6128   4.251   4.365   2.737  0.5805 -0.4921  1.1801
 2024SOL    HW2 6129   4.199   4.262   2.639 -1.3990  1.5445  0.0027
 2025SOL     OW 6130   3.543   0.607   2.091 -0.2201 -0.1035 -0.3320
 2025SOL    HW1 6131   3.540   0.547   2.016 -1.7926  1.2895 -1.4784
 2025SOL    HW2 6132   3.503   0.558   2.163 -0.9275 -0.6609 -1.0796
 2026SOL     OW 6133   1.193   0.140   3.997  0.0947 -0.5340  0.2541
 2026SOL    HW1 6134   1.155   0.172   4.079 -0.5278  0.2031 -0.3042
 2026SOL    HW2 6135   1.119   0.130   3.938  0.6355 -0.1482 -0.5131
 2027SOL     OW 6136   4.862   2.006   4.941 -0.1903  0.4493  0.4349
 2027SOL    HW1 6137   4.909   1.949   5.002 -0.8926 -0.0437  0.5179
 2027SOL    HW2 6138   4.932   2.048   4.891  0.3539 -1.0133 -0.1188
 2028SOL     OW 6139   2.730   3.538   3.678  0.6608  0.4860  0.3233
 2028SOL    HW1 6140   2.803   3.589   3.712  0.4110  1.4656 -0.5755
 2028SOL    HW2 6141   2.741   3.539   3.583  0.0930 -0.2927  0.2389
 2029SOL     OW 6142   2.513   2.047   4.621  0.0951  0.1269 -0.1035
 2029SOL    HW1 6143   2.603   2.016   4.633  0.4389  0.8585 -0.6616
 2029SOL    HW2 6144   2.516   2.098   4.540 -1.0285 -0.5788 -0.6191
 2030SOL     OW 6145   2.008   4.467   1.224  0.0481  0.3421 -0.0026
 2030SOL    HW1 6146   2.005   4.374   1.246 -0.0645  0.0275 -1.2716
 2030SOL    HW2 6147   1.928   4.483   1.174 -0.8435  1.5522  1.7159
 2031SOL     OW 6148   2.894   1.287   1.501 -0.0539  0.3599  0.1921
 2031SOL    HW1 6149   2.866   1.327   1.583  2.8584  0.8266  1.0447
 2031SOL    HW2 6150   2.920   1.198   1.524 -0.2192  0.1276 -0.4647
 2032SOL     OW 6151   3.786   1.490   3.723  0.0221 -0.2288 -0.5257
 2032SOL    HW1 6152   3.873   1.489   3.685 -0.0397  0.6675 -0.7033
 2032SOL    HW2 6153   3.727   1.495   3.647 -0.0839  2.3210 -0.3726
 2033SOL     OW 6154   2.319   4.193   0.639 -0.2850 -0.0655  0.0146
 2033SOL    HW1 6155   2.295   4.192   0.732  1.2719 -1.4880  0.4564
 2033SOL    HW2 6156   2.264   4.125   0.600  1.4569 -1.9130  0.6293
 2034SOL     OW 6157   3.458   0.267   1.188 -0.5467  0.5405 -0.0205
 2034SOL    HW1 6158   3.434   0.292   1.277  0.4832  0.7841  0.2025
 2034SOL    HW2 6159   3.507   0.185   1.199 -0.3307  0.6261 -0.3531
 2035SOL     OW 6160   0.972   2.891   2.230  0.6717 -0.1877  0.3376
 2035SOL    HW1 6161   0.942   2.911   2.141 -2.0952  1.5483  1.5231
 2035SOL    HW2 6162   0.967   2.975   2.276  1.7374 -1.1008  2.2244
 2036SOL     OW 6163   2.073   2.107   0.104  0.0154  0.5763 -0.5442
 2036SOL    HW1 6164   1.995   2.056   0.127  1.1591 -0.0356  2.3389
 2036SOL    HW2 6165   2.042   2.197   0.101 -1.1105  0.1948 -1.1276
 2037SOL     OW 6166   2.954   2.985   1.209 -0.1188  0.1864 -0.0241
 2037SOL    HW1 6167   2.999   3.011   1.129 -0.8323 -0.8423 -0.7967
 2037SOL    HW2 6168   2.888   2.922   1.179  0.3779 -1.1307  1.5059
 2038SOL     OW 6169   2.389   2.885   0.634  0.1832  0.0840 -0.6043
 2038SOL    HW1 6170   2.417   2.800   0.599  0.5187  0.2222 -0.6797
 2038SOL    HW2 6171   2.320   2.863   0.697  0.6134 -0.2847 -0.2505
 2039SOL     OW 6172   4.463   2.849   0.748  0.4090 -0.1019  0.2446
 2039SOL    HW1 6173   4.449   2.942   0.730  1.2041  0.1091  0.6812
 2039SOL    HW2 6174   4.465   2.808   0.662 -0.4507  0.2062  0.0692
 2040SOL     OW 6175   2.042   2.530   3.664 -0.7924 -0.5315  0.3582
 2040SOL    HW1 6176   2.013   2.518   3.573 -0.1976 -0.9408  0.2223
 2040SOL    HW2 6177   2.032   2.624   3.679 -1.6587 -0.5781  0.1319
 2041SOL     OW 6178   3.683   1.591   0.331  0.6878  0.1836 -0.5218
 2041SOL    HW1 6179   3.711   1.568   0.242 -0.1310  0.3661 -0.8371
 2041SOL    HW2 6180   3.649   1.509   0.367  0.4522  0.2449 -0.6019
 2042SOL     OW 6181   0.612   4.440   4.062  0.0127 -0.1770  0.2528
 2042SOL    HW1 6182   0.695   4.395   4.047  0.3006 -0.5892  2.7692
 2042SOL    HW2 6183   0.636   4.533   4.068  0.2050 -0.2333  0.3602
 2043SOL     OW 6184   2.699   1.114   3.168 -0.7309  0.1319  0.5427
 2043SOL    HW1 6185   2.657   1.129   3.084  0.9696  3.6463  0.1533
 2043SOL    HW2 6186   2.786   1.080   3.147 -1.2440 -1.6271  1.0806
 2044SOL     OW 6187   4.159   4.314   2.463 -0.1351  0.4621  0.9594
 2044SOL    HW1 6188   4.135   4.294   2.372  0.9161  0.1765  0.7348
 2044SOL    HW2 6189   4.090   4.372   2.493 -0.5113  0.5460 -0.0197
 2045SOL     OW 6190   0.110   4.470   1.840  0.2933  0.1323  0.3527
 2045SOL    HW1 6191   0.181   4.407   1.852  0.4793 -0.4776 -2.9460
 2045SOL    HW2 6192   0.075   4.483   1.928  1.5348 -3.0396  1.4950
 2046SOL     OW 6193   1.165   1.230   0.986  0.4444 -0.1731 -0.4392
 2046SOL    HW1 6194   1.234   1.296   0.974  0.2122 -0.2261 -2.3625
 2046SOL    HW2 6195   1.088   1.268   0.943 -0.4654 -0.5754  0.7618
 2047SOL     OW 6196   1.978   1.788   1.119 -0.5402  0.1126  0.2271
 2047SOL    HW1 6197   1.984   1.713   1.178  2.1790  0.2037  0.1921
 2047SOL    HW2 6198   1.889   1.822   1.132 -1.0079 -1.6419  2.0381
 2048SOL     OW 6199   1.124   2.598   0.664  0.0011  0.2585  0.0168
 2048SOL    HW1 6200   1.219   2.608   0.679  0.0096 -1.2885  1.3392
 2048SOL    HW2 6201   1.112   2.504   0.657 -1.3260  0.5037 -1.2058
 2049SOL     OW 6202   0.100   1.135   1.752  0.3889  0.0609 -0.0936
 2049SOL    HW1 6203   0.066   1.221   1.728 -0.0085 -0.2428 -0.6313
 2049SOL    HW2 6204   0.181   1.126   1.702  1.2498  0.7394  1.1068
 2050SOL     OW 6205   2.562   3.915   4.817  0.1333 -0.3467 -0.0869
 2050SOL    HW1 6206   2.559   3.833   4.866 -0.1658  0.2659  0.9594
 2050SOL    HW2 6207   2.483   3.962   4.845  2.0853  1.8639  2.2121
 2051SOL     OW 6208   3.742   0.951   4.764 -0.0863  0.4821  0.8424
 2051SOL    HW1 6209   3.786   1.008   4.828  0.3178  1.6933 -0.4564
 2051SOL    HW2 6210   3.657   0.992   4.751 -0.7054 -0.5364  1.5993
 2052SOL     OW 6211   0.903   0.740   1.564 -0.1050  0.5283  0.6366
 2052SOL    HW1 6212   0.991   0.703   1.555 -1.5160 -3.0715 -0.0298
 2052SOL    HW2 6213   0.879   0.766   1.475 -0.1747  0.2609  0.5750
 2053SOL     OW 6214   4.259   0.926   0.747  0.2152  1.1475  0.5171
 2053SOL    HW1 6215   4.331   0.988   0.759 -0.6137  2.0302  1.0460
 2053SOL    HW2 6216   4.183   0.970   0.784 -1.4219  1.8329 -3.1501
 2054SOL     OW 6217   4.955   1.605   0.788 -0.3851 -0.1008  0.0876
 2054SOL    HW1 6218   4.930   1.589   0.879 -1.7977  0.2858 -0.2157
 2054SOL    HW2 6219   4.930   1.695   0.771 -0.0344 -0.1319 -0.6601
 2055SOL     OW 6220   1.274   4.542   1.197  0.0085  0.2302  0.4391
 2055SOL    HW1 6221   1.214   4.471   1.220 -1.0378  0.9029 -0.0808
 2055SOL    HW2 6222   1.351   4.529   1.253 -0.5557 -0.7590  1.0103
 2056SOL     OW 6223   0.871   4.835   2.586  0.1166  0.1097 -0.5937
 2056SOL    HW1 6224   0.956   4.815   2.547  0.0825  0.5301 -0.8853
 2056SOL    HW2 6225   0.822   4.880   2.517 -0.8774 -1.4093 -0.9244
 2057SOL     OW 6226   4.548   0.897   3.168  0.5127 -0.3249 -0.2713
 2057SOL    HW1 6227   4.623   0.839   3.182  0.5846 -0.4763 -1.2551
 2057SOL    HW2 6228   4.493   0.852   3.105 -2.2719 -1.9214  2.9530
 2058SOL     OW 6229   2.067   2.202   0.957  0.7603  0.0032  0.3635
 2058SOL    HW1 6230   2.009   2.131   0.928  1.1925  0.0061 -0.5471
 2058SOL    HW2 6231   2.139   2.157   1.001  0.3346 -0.0300  1.0437
 2059SOL     OW 6232   3.964   4.972   4.367  0.5747  0.4884  0.3268
 2059SOL    HW1 6233   3.871   4.964   4.349  0.6481  1.0350 -0.3343
 2059SOL    HW2 6234   4.007   4.924   4.297  0.8232  1.4518 -0.1956
 2060SOL     OW 6235   3.825   4.617   4.494 -0.4267  0.1542 -0.0617
 2060SOL    HW1 6236   3.837   4.544   4.432  0.3055 -1.1082  1.4787
 2060SOL    HW2 6237   3.914   4.642   4.518 -0.6523 -1.1114  2.3580
 2061SOL     OW 6238   1.106   4.739   1.146  0.4409  0.5753  0.8670
 2061SOL    HW1 6239   1.172   4.670   1.151  0.3362  0.3818 -0.2183
 2061SOL    HW2 6240   1.065   4.740   1.233 -0.0503 -1.2012  0.6879
 2062SOL     OW 6241   4.387   3.917   2.155  0.0107 -0.1682 -0.1131
 2062SOL    HW1 6242   4.417   3.972   2.083  0.0504 -0.9714 -0.7297
 2062SOL    HW2 6243   4.453   3.847   2.160 -1.0869 -1.2868 -0.7007
 2063SOL     OW 6244   1.795   3.193   1.489 -0.0942 -0.3138 -0.2712
 2063SOL    HW1 6245   1.847   3.250   1.433  2.4718 -1.1052  1.1237
 2063SOL    HW2 6246   1.860   3.140   1.536 -2.2656 -3.3366 -0.3740
 2064SOL     OW 6247   0.554   0.988   1.388 -0.3647 -0.0409  0.5422
 2064SOL    HW1 6248   0.532   0.912   1.442 -1.0231  0.3535  0.8384
 2064SOL    HW2 6249   0.505   0.975   1.307  0.1938 -0.3549  0.2459
 2065SOL     OW 6250   0.883   0.225   2.309  0.2723  0.0169  0.1441
 2065SOL    HW1 6251   0.924   0.303   2.273 -2.5595  1.2663 -0.6439
 2065SOL    HW2 6252   0.857   0.174   2.232  1.2703 -1.2749  0.6387
 2066SOL     OW 6253   2.928   3.353   0.999  1.5954  0.2192  0.0174
 2066SOL    HW1 6254   2.974   3.354   1.083  1.4368  1.9945  0.1351
 2066SOL    HW2 6255   2.998   3.354   0.934  1.7313 -2.0773  0.0729
 2067SOL     OW 6256   1.862   0.593   3.274  0.1756 -0.1269 -0.0955
 2067SOL    HW1 6257   1.949   0.567   3.304  0.3270 -0.9709 -1.1757
 2067SOL    HW2 6258   1.807   0.518   3.294  0.5017 -1.1901 -2.7686
 2068SOL     OW 6259   2.778   2.410   2.791 -0.9013 -0.1045 -0.3332
 2068SOL    HW1 6260   2.777   2.435   2.884 -1.7111 -1.1048 -0.0569
 2068SOL    HW2 6261   2.795   2.492   2.744  1.0295  0.1909  0.7550
 2069SOL     OW 6262   0.958   3.673   3.121 -0.0187 -0.3523 -0.0746
 2069SOL    HW1 6263   1.016   3.607   3.158 -0.3211 -0.8380 -0.4537
 2069SOL    HW2 6264   0.940   3.642   3.032 -0.4028  0.0905 -0.1569
 2070SOL     OW 6265   3.244   4.171   4.438 -0.2708 -0.2051  1.0892
 2070SOL    HW1 6266   3.247   4.260   4.403  1.1524 -0.1088  1.3728
 2070SOL    HW2 6267   3.212   4.118   4.365 -0.4868  0.4511  0.6999
 2071SOL     OW 6268   3.900   4.909   3.706 -0.1229  0.0452 -0.6108
 2071SOL    HW1 6269   3.941   4.988   3.740 -1.4818  0.5667 -0.1391
 2071SOL    HW2 6270   3.838   4.941   3.640  0.1740 -0.7238 -1.2809
 2072SOL     OW 6271   3.791   4.490   3.489  0.1787  0.0364  0.4587
 2072SOL    HW1 6272   3.798   4.500   3.584 -0.2143  1.7942  0.3280
 2072SOL    HW2 6273   3.752   4.572   3.458  0.3674 -0.4633 -1.2384
 2073SOL     OW 6274   4.656   2.518   4.381 -0.4675  0.4952 -0.6558
 2073SOL    HW1 6275   4.722   2.448   4.385 -0.6864  0.3140 -0.2291
 2073SOL    HW2 6276   4.666   2.554   4.293  1.1076  1.3363 -0.1671
 2074SOL     OW 6277   1.160   2.683   3.223  0.2905  0.4935  0.3540
 2074SOL    HW1 6278   1.180   2.703   3.315  1.2422  0.7539  0.1050
 2074SOL    HW2 6279   1.126   2.765   3.187 -0.3837  0.3060  0.5407
 2075SOL     OW 6280   0.696   1.976   2.850  0.4771  0.5639 -0.0879
 2075SOL    HW1 6281   0.610   2.017   2.854  0.9277  1.6951 -0.9917
 2075SOL    HW2 6282   0.707   1.953   2.757  1.1937  0.5655 -0.0105
 2076SOL     OW 6283   2.077   0.447   0.567 -0.3432  0.4012 -0.1713
 2076SOL    HW1 6284   2.076   0.526   0.512 -0.8274  0.0736 -0.6519
 2076SOL    HW2 6285   1.984   0.423   0.575 -0.1357 -0.7123 -0.9015
 2077SOL     OW 6286   0.482   3.673   1.591 -0.2947 -0.2287  0.6082
 2077SOL    HW1 6287   0.451   3.740   1.651  1.8435  2.1119 -0.7148
 2077SOL    HW2 6288   0.575   3.663   1.611  0.4496  0.4501 -2.0244
 2078SOL     OW 6289   3.205   1.119   1.273  0.1515  0.3684 -0.5203
 2078SOL    HW1 6290   3.274   1.093   1.212 -1.0035 -1.1234 -1.2352
 2078SOL    HW2 6291   3.123   1.106   1.226 -0.7694 -0.5615  1.2099
 2079SOL     OW 6292   1.959   3.974   1.429 -0.4899  0.9662 -0.1554
 2079SOL    HW1 6293   1.925   4.022   1.504  0.2960  0.5027  0.5117
 2079SOL    HW2 6294   1.897   3.902   1.417 -0.1010  0.4728  0.6790
 2080SOL     OW 6295   3.029   4.379   1.517 -0.3107  0.6014 -0.4519
 2080SOL    HW1 6296   3.077   4.414   1.441  0.2728  1.6075  0.3496
 2080SOL    HW2 6297   2.984   4.301   1.483 -1.5258  2.0041 -2.2839
 2081SOL     OW 6298   4.794   4.811   1.225  0.6830 -0.1582 -0.0839
 2081SOL    HW1 6299   4.717   4.800   1.280  0.7385 -0.8467 -0.1369
 2081SOL    HW2 6300   4.849   4.873   1.273  0.7558 -0.7842  0.6700
 2082SOL     OW 6301   2.513   1.017   4.216 -0.8485  0.0069 -0.4274
 2082SOL    HW1 6302   2.601   0.999   4.183 -0.1694 -2.2901  2.2497
 2082SOL    HW2 6303   2.458   0.953   4.173 -0.4573 -1.1500  0.7333
 2083SOL     OW 6304   2.673   2.533   3.848 -0.1492  0.0451 -0.3022
 2083SOL    HW1 6305   2.688   2.627   3.856  2.9142 -0.1825 -1.9351
 2083SOL    HW2 6306   2.630   2.523   3.763 -0.0236 -0.0428 -0.3565
 2084SOL     OW 6307   0.163   3.938  -0.015  0.0289 -0.0139  0.1038
 2084SOL    HW1 6308   0.092   3.879  -0.040 -3.3844  3.3933  0.8635
 2084SOL    HW2 6309   0.185   3.912   0.074 -1.1798 -0.3765  0.3120
 2085SOL     OW 6310   1.440   2.236   4.607  0.4172 -0.5300  0.2619
 2085SOL    HW1 6311   1.364   2.226   4.548  0.4686 -0.2648  0.1482
 2085SOL    HW2 6312   1.513   2.201   4.557  0.7535  1.1131 -0.4734
 2086SOL     OW 6313   4.894   3.438   3.351  0.2947 -0.2320 -0.4389
 2086SOL    HW1 6314   4.965   3.445   3.415 -0.4204 -1.2379  0.5022
 2086SOL    HW2 6315   4.882   3.343   3.340 -1.3971 -0.0989 -0.0079
 2087SOL     OW 6316   4.046   3.138   4.224 -0.0948 -0.2067 -0.8265
 2087SOL    HW1 6317   3.981   3.174   4.284  0.7200 -1.4092  0.8446
 2087SOL    HW2 6318   4.002   3.137   4.139 -1.8607  0.0374  0.0441
 2088SOL     OW 6319   1.175   1.298   3.451  0.3819  0.5077  0.4556
 2088SOL    HW1 6320   1.241   1.246   3.404 -0.1121  0.6066 -0.3700
 2088SOL    HW2 6321   1.225   1.348   3.515  0.7815 -1.8182  2.0913
 2089SOL     OW 6322   1.852   0.895   2.075  0.2659  0.1123  0.2574
 2089SOL    HW1 6323   1.786   0.827   2.088  0.6243 -0.5781 -1.2979
 2089SOL    HW2 6324   1.857   0.906   1.980  1.8593  0.6632  0.3683
 2090SOL     OW 6325   4.847   0.569   1.454 -0.3326 -0.7657  0.4853
 2090SOL    HW1 6326   4.829   0.558   1.547  0.9930  1.2852  1.0513
 2090SOL    HW2 6327   4.780   0.632   1.425 -0.1466 -0.6501  0.3049
 2091SOL     OW 6328   0.514   0.017   2.535  0.5605 -0.3888  0.1763
 2091SOL    HW1 6329   0.526   0.111   2.531 -0.0016 -0.2914  0.6727
 2091SOL    HW2 6330   0.427   0.001   2.499  1.3396 -0.9108 -1.6214
 2092SOL     OW 6331   2.116   3.463   4.578  0.2331  0.1786  0.2660
 2092SOL    HW1 6332   2.027   3.496   4.562 -0.3237 -1.2061  0.3031
 2092SOL    HW2 6333   2.172   3.540   4.575 -1.0761  1.2100  1.0419
 2093SOL     OW 6334   1.872   2.421   3.850  0.2036  0.1119  0.3751
 2093SOL    HW1 6335   1.931   2.480   3.802  0.2132 -0.8855 -0.9010
 2093SOL    HW2 6336   1.818   2.381   3.781 -0.1109 -1.0370  1.2641
 2094SOL     OW 6337   0.657   3.929   0.567  0.1713  0.1659 -0.0016
 2094SOL    HW1 6338   0.713   3.902   0.495 -2.2124 -2.1156 -1.1551
 2094SOL    HW2 6339   0.638   3.848   0.615  0.3082  1.3606  2.2161
 2095SOL     OW 6340   3.291   0.304   4.633 -0.5700  0.0638  0.2295
 2095SOL    HW1 6341   3.301   0.400   4.629  0.3385  0.0985  2.0588
 2095SOL    HW2 6342   3.335   0.272   4.554  1.9665  1.0503  1.1353
 2096SOL     OW 6343   2.299   0.842   4.157  0.4492 -0.2531  0.2612
 2096SOL    HW1 6344   2.262   0.796   4.233  0.5221 -0.8841 -0.0774
 2096SOL    HW2 6345   2.300   0.776   4.088 -2.4063  1.0789 -1.2045
 2097SOL     OW 6346   2.847   2.216   0.387 -0.3486  0.2478  0.3181
 2097SOL    HW1 6347   2.909   2.284   0.360  1.4427 -0.8999  1.3474
 2097SOL    HW2 6348   2.790   2.204   0.311  0.8045  1.2242 -0.7377
 2098SOL     OW 6349   2.879   0.181   4.978 -0.5021  0.3960  0.1890
 2098SOL    HW1 6350   2.930   0.184   4.897 -1.9318 -1.4045 -0.8646
 2098SOL    HW2 6351   2.801   0.232   4.958 -0.5481  0.5065  0.6615
 2099SOL     OW 6352   2.734   3.387   4.521 -0.0185 -0.4378 -0.1551
 2099SOL    HW1 6353   2.639   3.393   4.519 -0.0126 -0.5745 -1.0151
 2099SOL    HW2 6354   2.761   3.456   4.582 -0.5357  1.3058 -1.7819
 2100SOL     OW 6355   4.987   1.486   1.772  0.1136  0.2911  0.6720
 2100SOL    HW1 6356   4.914   1.505   1.712  1.3241 -0.2886 -1.0625
 2100SOL    HW2 6357   4.945   1.475   1.857 -1.8372 -0.0253 -0.2638
 2101SOL     OW 6358   1.709   4.857   4.543  0.4426 -0.1551  0.2375
 2101SOL    HW1 6359   1.682   4.862   4.634  2.2477  0.3448  0.7915
 2101SOL    HW2 6360   1.678   4.939   4.504 -0.4843 -0.4472  0.3304
 2102SOL     OW 6361   0.565   3.599   4.256  0.3395  0.0248 -0.4532
 2102SOL    HW1 6362   0.611   3.517   4.273  1.0686  0.5077 -0.0766
 2102SOL    HW2 6363   0.480   3.571   4.220  1.5572 -0.8862 -2.9103
 2103SOL     OW 6364   3.428   1.096   1.128 -0.1680  0.6280  0.3620
 2103SOL    HW1 6365   3.445   1.180   1.171  1.6247  0.4820  0.0363
 2103SOL    HW2 6366   3.494   1.037   1.166 -0.0036 -0.0621 -0.9535
 2104SOL     OW 6367   3.193   2.383   1.420 -0.0001  0.4316 -0.0261
 2104SOL    HW1 6368   3.147   2.306   1.452  0.1083  0.4684  0.2182
 2104SOL    HW2 6369   3.259   2.402   1.486  1.4014 -0.5253 -1.0869
 2105SOL     OW 6370   0.615   3.300   3.492 -0.1515 -0.7272  0.2007
 2105SOL    HW1 6371   0.700   3.302   3.535  0.0620 -0.9861 -0.2052
 2105SOL    HW2 6372   0.634   3.316   3.400 -0.5824 -0.3969  0.1646
 2106SOL     OW 6373   3.630   0.606   4.073  0.2998  0.2240 -1.0589
 2106SOL    HW1 6374   3.621   0.647   3.987 -2.1837  2.5453  0.1445
 2106SOL    HW2 6375   3.552   0.550   4.082 -0.5146  1.4891  0.3178
 2107SOL     OW 6376   0.642   1.324   3.859  0.0496 -0.0243 -0.3349
 2107SOL    HW1 6377   0.665   1.324   3.766  1.7620 -1.8951  0.0282
 2107SOL    HW2 6378   0.553   1.289   3.862 -0.0613  0.1693 -1.2821
 2108SOL     OW 6379   0.598   4.649   1.410 -0.4226  0.0065 -0.6804
 2108SOL    HW1 6380   0.655   4.597   1.467  0.0706  0.0243 -1.1474
 2108SOL    HW2 6381   0.518   4.662   1.461 -0.3962 -0.8689 -0.4039
 2109SOL     OW 6382   1.758   4.674   4.957 -0.3991 -0.1530  0.3241
 2109SOL    HW1 6383   1.732   4.583   4.949  0.3742 -0.3558 -0.0243
 2109SOL    HW2 6384   1.684   4.717   4.999 -1.4831 -0.5976 -1.0702
 2110SOL     OW 6385   4.233   3.779   1.495  0.1241 -0.4860  0.2842
 2110SOL    HW1 6386   4.150   3.762   1.451  0.4471  2.3005 -1.6046
 2110SOL    HW2 6387   4.209   3.791   1.587 -1.8066  1.4777 -0.4053
 2111SOL     OW 6388   4.240   4.147   0.320  0.5634  0.1247 -0.2048
 2111SOL    HW1 6389   4.268   4.059   0.343 -3.0488 -0.7989  1.1913
 2111SOL    HW2 6390   4.165   4.134   0.262  0.2680  2.3221 -0.3944
 2112SOL     OW 6391   3.788   2.558   2.852 -0.3880  0.4041 -0.0281
 2112SOL    HW1 6392   3.725   2.572   2.781 -0.9100 -0.8581  0.1671
 2112SOL    HW2 6393   3.861   2.616   2.831  0.0329 -0.8576 -2.2850
 2113SOL     OW 6394   4.720   1.627   4.160 -0.0896 -0.4196 -0.3535
 2113SOL    HW1 6395   4.766   1.711   4.150  0.8308 -0.6855  1.2513
 2113SOL    HW2 6396   4.789   1.564   4.181 -0.9896 -1.1653  0.4819
 2114SOL     OW 6397   0.583   0.532   1.386 -0.6169 -0.1971  0.1438
 2114SOL    HW1 6398   0.514   0.500   1.445  1.9103 -2.8285  1.9628
 2114SOL    HW2 6399   0.664   0.503   1.426  1.5407  1.2958 -2.7451
 2115SOL     OW 6400   4.791   2.790   0.069 -0.5703  0.2667 -0.0353
 2115SOL    HW1 6401   4.805   2.884   0.059 -0.3156  0.5282  2.2562
 2115SOL    HW2 6402   4.700   2.781   0.096 -0.3328 -0.0446  0.6876
 2116SOL     OW 6403   2.611   4.562   2.082 -0.4018  0.3935  0.6876
 2116SOL    HW1 6404   2.583   4.591   1.995  1.4622 -0.1386 -0.1408
 2116SOL    HW2 6405   2.530   4.535   2.126 -1.4099  0.9497 -0.7657
 2117SOL     OW 6406   1.820   2.598   2.109 -0.0844  0.4590  0.3456
 2117SOL    HW1 6407   1.897   2.621   2.058 -0.0821 -0.9772 -0.3454
 2117SOL    HW2 6408   1.746   2.633   2.059 -0.0249 -0.1743 -0.1883
 2118SOL     OW 6409   4.547   2.094   3.411  0.0089  0.1867  0.2650
 2118SOL    HW1 6410   4.615   2.159   3.393  0.5470 -0.6970 -1.0200
 2118SOL    HW2 6411   4.585   2.036   3.477 -0.5834  1.3013  1.6401
 2119SOL     OW 6412   0.204   2.848   0.188  0.0006 -0.3100  0.3047
 2119SOL    HW1 6413   0.134   2.904   0.223  0.4601  1.3190 -1.2340
 2119SOL    HW2 6414   0.275   2.910   0.168 -0.1259 -1.1421 -3.1871
 2120SOL     OW 6415   4.703   3.303   1.882  0.9357 -0.2210  0.2373
 2120SOL    HW1 6416   4.618   3.344   1.870  1.0841  0.1969  0.5804
 2120SOL    HW2 6417   4.731   3.278   1.794  1.2259  1.1934 -0.0890
 2121SOL     OW 6418   3.998   0.063   0.249 -0.3839 -0.5079  0.0990
 2121SOL    HW1 6419   4.043   0.010   0.183  0.3733 -0.7147  0.7632
 2121SOL    HW2 6420   3.932   0.004   0.285 -1.8116  0.0677 -1.4856
 2122SOL     OW 6421   3.561   1.706   4.305 -0.2254  0.4946 -0.1136
 2122SOL    HW1 6422   3.588   1.770   4.239  1.0902  0.8303  0.7153
 2122SOL    HW2 6423   3.606   1.733   4.385  1.1386 -1.9609  0.0704
 2123SOL     OW 6424   1.920   3.931   4.410  0.2195 -0.5129  0.5630
 2123SOL    HW1 6425   1.943   3.963   4.323 -0.8970 -0.7786  0.1605
 2123SOL    HW2 6426   1.857   3.861   4.395  1.4534 -1.9047  1.5063
 2124SOL     OW 6427   4.627   1.732   3.519 -1.0169  0.3925  0.1346
 2124SOL    HW1 6428   4.558   1.699   3.576 -1.0056  0.3492  0.1237
 2124SOL    HW2 6429   4.641   1.822   3.548 -2.0806  0.8785 -0.8224
 2125SOL     OW 6430   3.785   1.506   0.086  0.4456  0.4039 -0.0084
 2125SOL    HW1 6431   3.707   1.507   0.030  0.8231 -0.4167 -0.5667
 2125SOL    HW2 6432   3.858   1.504   0.024  0.8650 -2.5652  0.4591
 2126SOL     OW 6433   2.274   3.582   1.433  0.6598  0.3224  0.3549
 2126SOL    HW1 6434   2.270   3.678   1.436 -0.4672  0.2669  1.2883
 2126SOL    HW2 6435   2.254   3.561   1.342 -2.4214  0.9021  0.7885
 2127SOL     OW 6436   0.908   4.723   2.826 -0.1842  0.1594  0.5569
 2127SOL    HW1 6437   0.867   4.640   2.805 -1.6223  0.5926  1.5200
 2127SOL    HW2 6438   0.893   4.777   2.748  1.3961 -0.6596 -0.3738
 2128SOL     OW 6439   4.915   4.845   2.421  0.4624  0.3632  0.3395
 2128SOL    HW1 6440   4.911   4.770   2.480 -0.6624 -0.7240 -1.0637
 2128SOL    HW2 6441   4.855   4.909   2.458 -1.7859 -1.0875 -0.5828
 2129SOL     OW 6442   0.582   2.222   3.414  0.1794  0.0593 -0.1749
 2129SOL    HW1 6443   0.582   2.217   3.318  2.1894  0.8900 -0.2661
 2129SOL    HW2 6444   0.491   2.241   3.437 -0.3453 -0.1631 -1.9055
 2130SOL     OW 6445   2.702   1.124   3.880 -0.2998  0.1543  0.3802
 2130SOL    HW1 6446   2.710   1.048   3.937 -2.6324 -0.9212 -0.5912
 2130SOL    HW2 6447   2.674   1.195   3.938  2.4997  0.5422  1.4015
 2131SOL     OW 6448   1.140   0.326   4.889  0.0987  0.0631 -0.3897
 2131SOL    HW1 6449   1.225   0.340   4.848  0.2561 -0.9559 -0.4323
 2131SOL    HW2 6450   1.149   0.244   4.937 -0.6845  0.2382  0.0829
 2132SOL     OW 6451   3.018   0.563   2.401  0.7131  0.4894 -0.6109
 2132SOL    HW1 6452   3.016   0.599   2.490 -1.3641 -0.2436 -0.2943
 2132SOL    HW2 6453   3.060   0.477   2.411 -1.4057 -0.5279  0.1197
 2133SOL     OW 6454   3.236   4.954   3.734 -0.0676 -0.2850  0.3098
 2133SOL    HW1 6455   3.249   5.044   3.764 -0.3494  0.0444 -0.5250
 2133SOL    HW2 6456   3.298   4.902   3.785  0.5710  0.4748  0.3236
 2134SOL     OW 6457   4.341   3.222   4.942  0.5817  0.0425 -0.3497
 2134SOL    HW1 6458   4.436   3.208   4.949  0.4140 -0.7489  0.5786
 2134SOL    HW2 6459   4.307   3.199   5.029 -0.5284 -0.2301 -0.8396
 2135SOL     OW 6460   1.384   0.807   1.437 -0.1636 -0.3524  0.1207
 2135SOL    HW1 6461   1.413   0.725   1.476 -0.7609  0.0841  1.5473
 2135SOL    HW2 6462   1.451   0.871   1.463 -1.6078  0.3805  2.3032
 2136SOL     OW 6463   0.131   0.789   3.782  0.1168 -0.5239  0.2335
 2136SOL    HW1 6464   0.045   0.829   3.769  0.8287  1.7642  1.9591
 2136SOL    HW2 6465   0.143   0.734   3.705 -2.4846 -0.1948 -0.5121
 2137SOL     OW 6466   3.946   4.177   0.038  0.0814 -0.1195  0.2536
 2137SOL    HW1 6467   4.037   4.150   0.056  0.2632  0.5307  0.3186
 2137SOL    HW2 6468   3.922   4.232   0.112  0.3591  1.4506 -0.7691
 2138SOL     OW 6469   2.869   4.421   4.304  0.4322 -0.0737  0.0376
 2138SOL    HW1 6470   2.907   4.464   4.381 -0.3232 -0.5301  0.6835
 2138SOL    HW2 6471   2.793   4.374   4.338 -0.0736 -0.0671 -1.0415
 2139SOL     OW 6472   2.358   4.348   3.597 -0.0578  0.0544  0.4835
 2139SOL    HW1 6473   2.449   4.323   3.578  0.2140  0.5749  1.0551
 2139SOL    HW2 6474   2.347   4.325   3.690 -1.0103 -1.4438  0.0351
 2140SOL     OW 6475   0.948   1.059   2.009 -0.2644 -0.0850 -0.6896
 2140SOL    HW1 6476   0.949   1.029   1.918 -0.4429 -0.5190 -0.5524
 2140SOL    HW2 6477   1.029   1.110   2.018 -0.0137 -0.4263 -0.9627
 2141SOL     OW 6478   2.089   4.520   1.868 -0.2419 -0.5948 -0.3050
 2141SOL    HW1 6479   2.009   4.561   1.902 -1.3300 -1.0040 -2.2317
 2141SOL    HW2 6480   2.067   4.427   1.863  0.7053 -0.8448 -0.0014
 2142SOL     OW 6481   1.796   0.163   2.505  0.3848 -0.2610 -0.4625
 2142SOL    HW1 6482   1.806   0.094   2.571 -0.3805  0.5303  0.5084
 2142SOL    HW2 6483   1.884   0.199   2.495  0.8074 -1.4002 -1.0275
 2143SOL     OW 6484   2.583   3.496   3.181 -0.1396 -0.3096 -0.2131
 2143SOL    HW1 6485   2.579   3.508   3.086 -0.4260 -2.3274 -0.4973
 2143SOL    HW2 6486   2.578   3.401   3.193 -0.8438 -0.0450  1.8612
 2144SOL     OW 6487   3.184   2.257   4.216  0.0917  0.4227 -0.7056
 2144SOL    HW1 6488   3.090   2.271   4.213 -0.0617 -0.6825 -2.3978
 2144SOL    HW2 6489   3.199   2.215   4.301 -0.6500  2.1933  0.3538
 2145SOL     OW 6490   1.476   0.427   2.260 -0.5415  0.1738  0.2786
 2145SOL    HW1 6491   1.493   0.477   2.180 -0.3266 -1.4902 -0.7614
 2145SOL    HW2 6492   1.494   0.336   2.236  0.9952 -0.2266  2.6501
 2146SOL     OW 6493   3.906   2.194   4.308 -0.1090  0.4468  0.1116
 2146SOL    HW1 6494   3.967   2.216   4.238  0.3230  0.8055  0.5935
 2146SOL    HW2 6495   3.904   2.098   4.309 -1.0796  0.4222 -1.2045
 2147SOL     OW 6496   2.967   4.535   2.024  0.0979  0.1609 -0.2643
 2147SOL    HW1 6497   2.932   4.610   2.072  1.8617  0.0716  1.2853
 2147SOL    HW2 6498   2.951   4.556   1.932 -2.5444  0.7883  0.2419
 2148SOL     OW 6499   2.970   3.719   4.489  0.4521  0.9343  0.0348
 2148SOL    HW1 6500   3.058   3.738   4.522  0.4120 -1.6177  1.9132
 2148SOL    HW2 6501   2.984   3.655   4.418  0.1334 -0.4342  1.1518
 2149SOL     OW 6502   4.665   1.382   2.933  0.0344  0.3939  0.3615
 2149SOL    HW1 6503   4.680   1.414   3.022  0.3981 -0.0399  0.4594
 2149SOL    HW2 6504   4.751   1.351   2.904 -0.0824  0.5310 -0.1423
 2150SOL     OW 6505   1.350   1.763   2.357 -0.5437 -0.5110  0.1101
 2150SOL    HW1 6506   1.323   1.672   2.357 -0.7440 -0.4875 -1.9737
 2150SOL    HW2 6507   1.321   1.798   2.273  0.3968  1.2124  0.4369
 2151SOL     OW 6508   3.999   0.756   0.853 -0.2184  0.1195 -0.3393
 2151SOL    HW1 6509   3.918   0.807   0.857  0.2687  0.8569  1.9579
 2151SOL    HW2 6510   3.972   0.667   0.876 -0.4792  0.2208 -0.2397
 2152SOL     OW 6511   0.373   0.294   0.187  0.5642 -0.6441 -0.0869
 2152SOL    HW1 6512   0.335   0.262   0.269 -0.2405 -0.8748 -0.5427
 2152SOL    HW2 6513   0.421   0.374   0.213 -0.3521 -0.2652  0.4836
 2153SOL     OW 6514   2.444   1.942   1.836 -0.2457  0.3042  1.0701
 2153SOL    HW1 6515   2.400   1.865   1.875  0.1485  0.1339  1.1846
 2153SOL    HW2 6516   2.448   1.922   1.743 -1.0101  0.6221  0.9556
 2154SOL     OW 6517   0.859   2.709   3.947  0.4860 -0.3276  0.1137
 2154SOL    HW1 6518   0.849   2.671   3.860  0.7739  2.1536 -1.0941
 2154SOL    HW2 6519   0.948   2.687   3.973 -0.2391 -2.8278  0.7631
 2155SOL     OW 6520   1.790   2.469   2.562 -0.2024 -0.1193  0.1330
 2155SOL    HW1 6521   1.702   2.502   2.577  0.6819  1.9325  1.2222
 2155SOL    HW2 6522   1.842   2.547   2.543  0.9312 -1.4943 -3.2457
 2156SOL     OW 6523   3.412   2.489   2.045 -0.1386  0.3005 -0.3871
 2156SOL    HW1 6524   3.368   2.540   2.113 -0.1661  1.7480 -1.4467
 2156SOL    HW2 6525   3.505   2.509   2.056 -0.1049  0.2224 -0.5297
 2157SOL     OW 6526   3.230   0.560   0.987 -0.4333 -0.1747 -0.4923
 2157SOL    HW1 6527   3.245   0.592   0.898  0.3381  2.6328  0.5231
 2157SOL    HW2 6528   3.252   0.635   1.043 -2.4752 -1.2899  1.9976
 2158SOL     OW 6529   4.853   3.654   1.143  0.0838 -0.0753  0.4734
 2158SOL    HW1 6530   4.886   3.723   1.085 -0.3748  0.4175  0.7791
 2158SOL    HW2 6531   4.758   3.661   1.135 -0.0214  0.5389  1.8669
 2159SOL     OW 6532   3.718   2.196   1.615 -0.4173  0.5424  0.1514
 2159SOL    HW1 6533   3.813   2.198   1.601 -0.0901 -0.3152  2.0201
 2159SOL    HW2 6534   3.682   2.182   1.527  1.2726 -0.9902 -0.3727
 2160SOL     OW 6535   2.700   0.113   2.223 -0.0856 -0.2439  0.0873
 2160SOL    HW1 6536   2.738   0.172   2.157  0.1651  1.1463  1.4139
 2160SOL    HW2 6537   2.716   0.025   2.189  1.5181  0.3900 -0.9047
 2161SOL     OW 6538   4.468   4.526   1.855  0.0200 -0.5903 -0.0275
 2161SOL    HW1 6539   4.561   4.546   1.865 -0.0460  0.2366 -0.9217
 2161SOL    HW2 6540   4.424   4.591   1.911 -0.1172  0.7705 -1.6433
 2162SOL     OW 6541  -0.013   3.544   3.734  0.9002  0.3923  0.1227
 2162SOL    HW1 6542  -0.049   3.590   3.658 -0.0718  1.9157  1.4410
 2162SOL    HW2 6543   0.071   3.510   3.704  0.1405  0.1797 -1.8817
 2163SOL     OW 6544   1.593   4.853   0.130 -0.5330 -0.1803  0.0491
 2163SOL    HW1 6545   1.641   4.853   0.213 -1.1592  0.0889  0.4162
 2163SOL    HW2 6546   1.579   4.946   0.110  1.8490 -0.1084 -1.6895
 2164SOL     OW 6547   1.855   1.102   3.282  0.0568  0.0293  0.2557
 2164SOL    HW1 6548   1.840   1.085   3.189  0.3382  1.6786 -0.1344
 2164SOL    HW2 6549   1.803   1.036   3.328 -1.9069  0.5435 -1.0795
 2165SOL     OW 6550   1.337   4.784   0.194 -0.3024 -0.0799 -0.1442
 2165SOL    HW1 6551   1.425   4.818   0.179 -1.4398  3.4317  0.1805
 2165SOL    HW2 6552   1.283   4.831   0.130 -2.4663  1.0418  2.3420
 2166SOL     OW 6553   1.895   1.641   2.989  0.3742  0.7341  0.2075
 2166SOL    HW1 6554   1.822   1.702   2.993 -1.0428 -0.7911 -1.0626
 2166SOL    HW2 6555   1.856   1.557   2.966  2.5885 -0.0448 -1.0699
 2167SOL     OW 6556   2.127   1.647   1.668  0.2137 -0.5347 -0.4500
 2167SOL    HW1 6557   2.159   1.659   1.758  2.2717  0.0747 -1.2099
 2167SOL    HW2 6558   2.204   1.657   1.613 -1.2537  0.6260 -2.4371
 2168SOL     OW 6559   1.155   4.395   3.958  0.2723  0.6160  0.3558
 2168SOL    HW1 6560   1.114   4.324   3.908  0.0737  1.3999 -0.6232
 2168SOL    HW2 6561   1.196   4.351   4.033 -0.8966 -0.3790  0.4384
 2169SOL     OW 6562   3.906   2.309   0.274 -0.3092  0.5602  0.3087
 2169SOL    HW1 6563   3.839   2.285   0.338  0.8471 -1.3015  0.8825
 2169SOL    HW2 6564   3.856   2.342   0.199 -2.0868 -2.6741 -0.1101
 2170SOL     OW 6565   0.959   4.864   4.091 -0.1346  0.4385  0.4070
 2170SOL    HW1 6566   1.006   4.911   4.023 -0.1141 -0.2468 -0.0676
 2170SOL    HW2 6567   0.990   4.773   4.083  2.5130  0.8740  3.5515
 2171SOL     OW 6568   3.426   3.746   2.986 -0.5186  0.9518  0.4649
 2171SOL    HW1 6569   3.430   3.752   3.082  2.9409 -2.8077  0.8236
 2171SOL    HW2 6570   3.496   3.803   2.955 -0.0172  0.2943  0.3754
 2172SOL     OW 6571   4.113   3.401   3.229 -0.2756  0.1781 -0.5919
 2172SOL    HW1 6572   4.131   3.309   3.211 -0.1883 -0.1982  1.2194
 2172SOL    HW2 6573   4.173   3.449   3.172  0.4353 -0.9010 -0.7766
 2173SOL     OW 6574   2.705   1.628   3.721 -0.1808 -0.2505 -0.0691
 2173SOL    HW1 6575   2.685   1.704   3.777 -2.9473 -1.0528  0.2049
 2173SOL    HW2 6576   2.795   1.604   3.744  0.6395  2.6525  0.1227
 2174SOL     OW 6577   4.405   0.286   3.073  0.1763 -0.1627 -0.2994
 2174SOL    HW1 6578   4.385   0.379   3.070 -1.2968 -0.3591  1.4101
 2174SOL    HW2 6579   4.497   0.281   3.097  0.0669  0.8573  0.3558
 2175SOL     OW 6580   0.228   1.299   4.757 -0.6607 -0.0051 -0.2270
 2175SOL    HW1 6581   0.214   1.226   4.698  0.4159 -0.1783 -0.2837
 2175SOL    HW2 6582   0.232   1.259   4.844 -0.8836  0.0852 -0.1752
 2176SOL     OW 6583   3.803   4.832   0.601 -0.5100 -0.1847 -0.1832
 2176SOL    HW1 6584   3.897   4.820   0.590 -0.4486 -0.0657  0.1982
 2176SOL    HW2 6585   3.795   4.906   0.661 -0.8367 -0.4773  0.1394
 2177SOL     OW 6586   3.520   1.072   4.376 -0.6462  0.5541  0.3370
 2177SOL    HW1 6587   3.615   1.067   4.363 -0.7901 -3.8114 -0.4419
 2177SOL    HW2 6588   3.485   1.100   4.292 -0.1168  1.0952  0.2923
 2178SOL     OW 6589   1.169   1.992   3.088  0.4077 -0.5984 -0.2241
 2178SOL    HW1 6590   1.253   1.945   3.092  1.5090  1.3539  1.3622
 2178SOL    HW2 6591   1.194   2.083   3.074 -1.5654 -0.1798 -1.2809
 2179SOL     OW 6592   1.681   1.205   2.296 -0.3563 -0.4315 -0.2449
 2179SOL    HW1 6593   1.684   1.115   2.330  2.4580 -0.1476  0.5585
 2179SOL    HW2 6594   1.660   1.259   2.371 -0.1174 -0.2679 -0.2954
 2180SOL     OW 6595   4.691   2.219   2.538  0.2115 -0.2038 -0.3194
 2180SOL    HW1 6596   4.694   2.136   2.586  0.1024  0.0105  0.0587
 2180SOL    HW2 6597   4.722   2.197   2.450 -0.8309 -0.8690 -0.5399
 2181SOL     OW 6598   3.794   2.302   2.981 -0.0823  0.2264 -0.3028
 2181SOL    HW1 6599   3.776   2.384   2.935 -0.0073 -0.8078 -2.3253
 2181SOL    HW2 6600   3.731   2.300   3.052  0.2217  2.2280  0.0885
 2182SOL     OW 6601   0.099   3.649   0.328  0.4769 -0.3146  0.4854
 2182SOL    HW1 6602   0.004   3.645   0.337  0.1498  2.8874 -0.3141
 2182SOL    HW2 6603   0.114   3.700   0.249  2.9744 -2.7250 -0.7867
 2183SOL     OW 6604   0.202   3.989   0.666  0.3055 -0.9136  0.0589
 2183SOL    HW1 6605   0.113   3.983   0.630  0.4361  1.0354 -0.7533
 2183SOL    HW2 6606   0.211   4.081   0.691  1.3242 -1.5516  2.2954
 2184SOL     OW 6607   2.172   4.780   3.274  0.5678  0.0671  0.4045
 2184SOL    HW1 6608   2.105   4.712   3.282  2.3922 -1.8117  0.4227
 2184SOL    HW2 6609   2.218   4.759   3.193  2.4558  0.0535  1.4357
 2185SOL     OW 6610   2.854   0.755   0.273 -0.0393 -0.2977 -0.9742
 2185SOL    HW1 6611   2.854   0.680   0.214  0.1091 -1.4528  0.4333
 2185SOL    HW2 6612   2.875   0.718   0.359  1.1741  1.5199 -0.4280
 2186SOL     OW 6613   0.945   4.723   1.501  1.3118  0.0569 -0.0187
 2186SOL    HW1 6614   1.038   4.708   1.511  1.6389  1.4742 -0.6777
 2186SOL    HW2 6615   0.934   4.817   1.513 -0.1298 -0.1679  0.6905
 2187SOL     OW 6616   4.459   0.613   1.010 -0.7216  0.0133  0.0289
 2187SOL    HW1 6617   4.456   0.519   1.029  0.7668 -0.3600 -1.3765
 2187SOL    HW2 6618   4.411   0.622   0.928  0.9492  0.1003 -0.9890
 2188SOL     OW 6619   2.988   1.038   1.141  0.3533 -0.1286 -0.2161
 2188SOL    HW1 6620   3.018   0.955   1.105  1.3163  0.4634 -0.8449
 2188SOL    HW2 6621   2.920   1.015   1.204  0.2654 -1.3467 -0.7448
 2189SOL     OW 6622   1.889   2.355   2.768 -0.0433 -0.3738  0.4164
 2189SOL    HW1 6623   1.849   2.402   2.695  0.1206  2.3671  1.9656
 2189SOL    HW2 6624   1.903   2.267   2.735  2.3584  1.2996 -3.7647
 2190SOL     OW 6625   4.911   3.316   4.940  0.2625 -0.1752  0.5996
 2190SOL    HW1 6626   4.855   3.333   5.016 -1.5908 -1.4142 -0.4074
 2190SOL    HW2 6627   4.968   3.393   4.934 -1.3752  1.1894  1.6480
 2191SOL     OW 6628  -0.012   2.147   2.089 -0.0531  0.1186  0.1895
 2191SOL    HW1 6629   0.071   2.106   2.112  0.0429  0.5514  0.6147
 2191SOL    HW2 6630  -0.009   2.155   1.993  0.3129 -0.0291  0.1887
 2192SOL     OW 6631   1.301   4.569   0.641  0.0374 -0.4030 -0.1207
 2192SOL    HW1 6632   1.384   4.558   0.596 -0.1285 -0.7424 -0.3481
 2192SOL    HW2 6633   1.263   4.648   0.602  0.7403  0.3861  0.7547
 2193SOL     OW 6634   1.693   4.204   2.402  0.1630 -0.6361 -0.0180
 2193SOL    HW1 6635   1.611   4.251   2.412  0.9741  0.4352  2.0998
 2193SOL    HW2 6636   1.694   4.141   2.474  1.6814  0.1982  0.7577
 2194SOL     OW 6637   3.480   1.681   1.546  0.2493 -0.7889  0.6916
 2194SOL    HW1 6638   3.475   1.635   1.630  0.6319 -1.0787  0.5555
 2194SOL    HW2 6639   3.400   1.655   1.500 -1.2069  1.2378  1.8987
 2195SOL     OW 6640   0.577   3.756   2.864  0.4444  0.4663  0.2720
 2195SOL    HW1 6641   0.571   3.802   2.948  0.1528  0.6227  0.1668
 2195SOL    HW2 6642   0.523   3.808   2.805  0.5533  0.2885  0.0169
 2196SOL     OW 6643   4.385   2.913   3.833  0.0009 -0.1121  0.8865
 2196SOL    HW1 6644   4.301   2.873   3.810  0.7021 -0.8982 -0.4271
 2196SOL    HW2 6645   4.362   2.985   3.892 -1.5342 -0.6927  1.0384
 2197SOL     OW 6646   4.091   0.850   0.580  0.8559  0.1217 -0.1574
 2197SOL    HW1 6647   4.042   0.818   0.655  0.3457  1.9102  0.3246
 2197SOL    HW2 6648   4.177   0.873   0.615  0.9062  0.1536 -0.2997
 2198SOL     OW 6649   4.685   1.437   3.195 -0.1777 -0.0438  0.1246
 2198SOL    HW1 6650   4.596   1.417   3.225 -0.1193 -0.6714 -0.1009
 2198SOL    HW2 6651   4.741   1.382   3.251  0.1363  0.9643  0.8386
 2199SOL     OW 6652   3.485   1.020   1.804 -0.1896 -0.0403 -0.2721
 2199SOL    HW1 6653   3.394   0.994   1.817 -0.8417  1.4463 -1.4767
 2199SOL    HW2 6654   3.536   0.941   1.822 -1.6270 -0.6474  1.3777
 2200SOL     OW 6655   4.709   0.038   2.507  0.3886  0.1512 -0.3040
 2200SOL    HW1 6656   4.677  -0.001   2.589 -0.4595  0.6841 -0.3720
 2200SOL    HW2 6657   4.630   0.056   2.457  0.8481  0.8120 -0.8004
 2201SOL     OW 6658   2.486   0.716   3.169  0.2324  0.3807  0.4094
 2201SOL    HW1 6659   2.580   0.726   3.185  0.4876 -1.5260  0.2573
 2201SOL    HW2 6660   2.448   0.797   3.204  1.6694  0.1907  2.6082
 2202SOL     OW 6661   0.840   4.555   4.153  0.1805 -0.0365  0.5546
 2202SOL    HW1 6662   0.799   4.574   4.237 -0.3148 -0.8468  0.5053
 2202SOL    HW2 6663   0.931   4.583   4.164 -0.0084  0.3664  1.1729
 2203SOL     OW 6664   0.915   4.797   3.226  0.2154 -0.5990  0.0663
 2203SOL    HW1 6665   0.977   4.802   3.299 -0.1955  0.6105  0.3484
 2203SOL    HW2 6666   0.951   4.855   3.160  0.2652 -1.2220 -0.4693
 2204SOL     OW 6667   3.543   1.227   4.168 -0.2341 -0.0931 -0.3603
 2204SOL    HW1 6668   3.612   1.272   4.120 -0.1556  0.5823  0.3657
 2204SOL    HW2 6669   3.489   1.297   4.205 -0.3558 -0.5949  0.4453
 2205SOL     OW 6670   1.173   0.846   0.362 -0.1957  0.9906 -0.9319
 2205SOL    HW1 6671   1.267   0.864   0.353 -0.2046  0.6384 -1.8771
 2205SOL    HW2 6672   1.160   0.831   0.455  1.2564 -1.8795 -1.0958
 2206SOL     OW 6673   2.752   2.888   3.260  0.3121  0.3923  0.0496
 2206SOL    HW1 6674   2.673   2.833   3.268  0.3300  0.4445  0.6615
 2206SOL    HW2 6675   2.766   2.922   3.349  0.2328  1.4834 -0.3332
 2207SOL     OW 6676   4.289   4.664   0.224  0.1204  0.0830 -1.2135
 2207SOL    HW1 6677   4.268   4.746   0.179  0.7694 -0.0071 -1.6917
 2207SOL    HW2 6678   4.204   4.623   0.241 -0.3964  1.9142  1.0895
 2208SOL     OW 6679   1.766   1.962   1.164  0.3304 -0.3802 -0.9150
 2208SOL    HW1 6680   1.773   1.924   1.252  0.0348 -0.5578 -0.9656
 2208SOL    HW2 6681   1.813   2.045   1.170 -0.0063 -0.2156 -0.4839
 2209SOL     OW 6682   1.226   3.114   0.945  0.4845  0.0285  0.5749
 2209SOL    HW1 6683   1.139   3.148   0.966 -0.6732 -1.1488 -1.8562
 2209SOL    HW2 6684   1.213   3.019   0.936  2.0016 -0.1654  0.1321
 2210SOL     OW 6685   2.370   4.463   1.783  0.1448 -0.8408  0.7984
 2210SOL    HW1 6686   2.283   4.492   1.755 -0.1037 -2.4214 -0.2055
 2210SOL    HW2 6687   2.422   4.544   1.786 -0.5763 -0.1905 -1.5259
 2211SOL     OW 6688   0.033   2.317   2.391  0.0306 -0.4077  0.6605
 2211SOL    HW1 6689   0.074   2.261   2.457  1.3554 -2.3260 -1.6269
 2211SOL    HW2 6690  -0.044   2.268   2.363  0.2277 -0.2664 -0.1407
 2212SOL     OW 6691   0.671   2.701   2.053 -0.2557 -0.1103 -0.0460
 2212SOL    HW1 6692   0.663   2.763   2.126 -0.6222  0.1233 -0.2813
 2212SOL    HW2 6693   0.710   2.623   2.092  2.0973  0.9279 -0.0992
 2213SOL     OW 6694   1.933   4.688   4.041  0.5705  1.0280  0.1066
 2213SOL    HW1 6695   1.976   4.665   3.958  2.4875  1.8291  0.8367
 2213SOL    HW2 6696   1.942   4.609   4.095  1.7273  1.4081  0.4833
 2214SOL     OW 6697   4.126   4.217   1.956  0.0544 -0.2147  0.0764
 2214SOL    HW1 6698   4.190   4.273   1.912 -1.0633  1.2153  0.1792
 2214SOL    HW2 6699   4.101   4.153   1.890  0.4935  0.1495 -0.4554
 2215SOL     OW 6700   3.912   1.516   3.172  0.2963 -0.0184 -0.4144
 2215SOL    HW1 6701   3.879   1.591   3.221  0.4268 -0.5461  0.5045
 2215SOL    HW2 6702   3.867   1.520   3.088 -2.6393 -1.0632  0.9913
 2216SOL     OW 6703   2.482   0.290   2.623  0.1455 -0.3587 -0.9710
 2216SOL    HW1 6704   2.564   0.336   2.606  0.3589 -0.9487 -1.5571
 2216SOL    HW2 6705   2.433   0.297   2.541  0.2634 -1.3422 -1.1349
 2217SOL     OW 6706   4.988   2.604   4.235 -0.1443 -0.5385 -0.2036
 2217SOL    HW1 6707   4.973   2.547   4.160  0.1733  0.3327 -0.9493
 2217SOL    HW2 6708   4.916   2.667   4.232  0.2728 -0.0554 -0.2137
 2218SOL     OW 6709   3.847   0.449   3.611  0.2550  0.2088 -0.3401
 2218SOL    HW1 6710   3.908   0.379   3.636  0.6074  0.5941 -0.0944
 2218SOL    HW2 6711   3.899   0.506   3.553  1.1546  2.1870  2.1705
 2219SOL     OW 6712   3.858   3.410   1.189  0.1902 -0.0909  0.0832
 2219SOL    HW1 6713   3.893   3.471   1.125 -0.2421  0.8808  0.7456
 2219SOL    HW2 6714   3.915   3.421   1.266 -0.1722 -0.1860  0.3663
 2220SOL     OW 6715   0.083   4.114   1.712 -0.0956 -0.2887 -0.3165
 2220SOL    HW1 6716   0.056   4.201   1.681  0.6724  0.2627  0.4883
 2220SOL    HW2 6717   0.162   4.095   1.663  1.4102  0.8091  1.5276
 2221SOL     OW 6718   1.958   2.817   0.412 -0.1256 -0.3573  0.2601
 2221SOL    HW1 6719   1.944   2.725   0.387 -1.2846 -0.2720  0.5245
 2221SOL    HW2 6720   2.010   2.854   0.341  3.4514 -2.0602  1.7520
 2222SOL     OW 6721   2.228   2.360   0.293  0.5271 -0.4681  0.1511
 2222SOL    HW1 6722   2.291   2.422   0.328  2.0235 -0.0590 -2.9414
 2222SOL    HW2 6723   2.150   2.412   0.275  0.8626 -0.0377 -0.0586
 2223SOL     OW 6724   4.631   4.012   2.586  0.2816  0.0723  0.9509
 2223SOL    HW1 6725   4.639   3.934   2.531  1.0622  0.6830  0.1719
 2223SOL    HW2 6726   4.537   4.029   2.590  0.2417  0.5082 -0.9318
 2224SOL     OW 6727   2.479   1.275   1.240 -0.5507 -0.2102 -0.2743
 2224SOL    HW1 6728   2.414   1.345   1.238 -0.8418 -0.4935 -1.2928
 2224SOL    HW2 6729   2.499   1.263   1.333 -0.4790  1.2354 -0.0871
 2225SOL     OW 6730   1.047   2.442   3.250  0.2630 -0.3868  0.5929
 2225SOL    HW1 6731   0.965   2.476   3.286  0.3387 -1.3000  1.6647
 2225SOL    HW2 6732   1.100   2.521   3.233 -0.1301  0.1239  1.6311
 2226SOL     OW 6733   4.689   0.335   2.915 -0.2704  0.3150  0.4108
 2226SOL    HW1 6734   4.713   0.276   2.986  1.5170 -1.6282 -1.6663
 2226SOL    HW2 6735   4.728   0.419   2.940  2.1204 -0.8379  0.8593
 2227SOL     OW 6736   0.408   0.799   2.453  0.3589 -0.0341 -0.4450
 2227SOL    HW1 6737   0.456   0.880   2.469 -0.4334 -0.0905  3.0162
 2227SOL    HW2 6738   0.318   0.819   2.477 -0.2690 -1.4485 -1.4615
 2228SOL     OW 6739   0.851   3.859   0.363  0.4504 -0.1933 -0.1040
 2228SOL    HW1 6740   0.874   3.952   0.364 -1.3100  0.2914 -0.3115
 2228SOL    HW2 6741   0.925   3.816   0.404  1.3601  1.2964 -0.0937
 2229SOL     OW 6742   4.470   0.434   2.732  0.2281  0.3971  0.0954
 2229SOL    HW1 6743   4.522   0.514   2.717  1.5429 -0.4626 -0.0977
 2229SOL    HW2 6744   4.518   0.388   2.801 -0.9255  0.1001  0.7206
 2230SOL     OW 6745   4.345   2.867   0.226  0.3461 -0.0303 -0.4768
 2230SOL    HW1 6746   4.264   2.883   0.177  0.8165  1.4041 -0.8264
 2230SOL    HW2 6747   4.372   2.954   0.256  0.5845 -0.7498  1.5534
 2231SOL     OW 6748   0.385   1.592   3.332 -0.6507 -0.2052  0.0438
 2231SOL    HW1 6749   0.411   1.537   3.258 -1.1865 -1.7685  0.9729
 2231SOL    HW2 6750   0.311   1.546   3.371 -2.1308  1.9541 -0.0202
 2232SOL     OW 6751   2.182   2.279   3.446  0.7693 -0.0983  0.0210
 2232SOL    HW1 6752   2.179   2.255   3.353  1.9016  0.4749 -0.1711
 2232SOL    HW2 6753   2.254   2.227   3.482  1.0966  0.5542  0.3176
 2233SOL     OW 6754   2.248   3.827   2.923  0.4990  0.3815  0.4370
 2233SOL    HW1 6755   2.181   3.832   2.992  1.4969  1.1702  1.3885
 2233SOL    HW2 6756   2.203   3.853   2.843 -0.3667  0.7764  1.0424
 2234SOL     OW 6757   2.008   2.437   0.855 -0.1737 -0.2389  0.1222
 2234SOL    HW1 6758   2.027   2.362   0.912  0.4707 -0.1940 -0.0169
 2234SOL    HW2 6759   2.031   2.407   0.767  0.8280  0.3502  0.1568
 2235SOL     OW 6760   3.109   0.037   0.914  0.3293 -0.2985  0.1400
 2235SOL    HW1 6761   3.152  -0.021   0.977  0.2380 -1.0160 -0.4408
 2235SOL    HW2 6762   3.124   0.125   0.949  0.4871 -0.6622  1.0307
 2236SOL     OW 6763   4.020   3.271   0.358 -0.0892  0.6828 -0.5226
 2236SOL    HW1 6764   3.997   3.257   0.449 -0.4357 -0.3468 -0.7550
 2236SOL    HW2 6765   4.018   3.366   0.346 -1.9947  0.7389  0.0340
 2237SOL     OW 6766   2.285   0.116   3.579  0.1217 -0.3178 -0.0469
 2237SOL    HW1 6767   2.238   0.122   3.495  0.0072 -1.2685 -0.0581
 2237SOL    HW2 6768   2.272   0.202   3.619 -3.5788 -1.1674  0.9790
 2238SOL     OW 6769   2.852   1.028   0.228 -0.9839  0.1240 -0.2403
 2238SOL    HW1 6770   2.850   0.935   0.254 -1.3975  0.1888 -0.0358
 2238SOL    HW2 6771   2.760   1.055   0.230 -0.7267  1.0055  1.3677
 2239SOL     OW 6772   1.811   1.407   4.858  0.3287 -0.1648 -0.5332
 2239SOL    HW1 6773   1.750   1.480   4.847  0.3617  0.0367  0.5098
 2239SOL    HW2 6774   1.898   1.446   4.847  0.3587  0.0189  0.3378
 2240SOL     OW 6775   2.727   3.204   0.094 -0.0827  0.3261 -0.4978
 2240SOL    HW1 6776   2.654   3.226   0.037 -1.6976 -2.2910  0.3663
 2240SOL    HW2 6777   2.784   3.149   0.041 -0.9763 -1.1274 -0.0028
 2241SOL     OW 6778   4.733   3.468   0.129 -1.0674 -0.5184 -0.2630
 2241SOL    HW1 6779   4.673   3.538   0.102 -0.7537 -0.5738 -1.1623
 2241SOL    HW2 6780   4.729   3.468   0.224  0.2587  1.9345 -0.1209
 2242SOL     OW 6781   0.555   0.601   4.861 -0.2275 -0.2022  0.0557
 2242SOL    HW1 6782   0.566   0.688   4.821  0.1676  0.0758  0.7562
 2242SOL    HW2 6783   0.494   0.615   4.933  0.7350 -0.2668  0.9024
 2243SOL     OW 6784   2.056   4.557   3.839  0.2202 -0.2652 -0.1587
 2243SOL    HW1 6785   2.005   4.476   3.842  1.0579 -0.7873  2.1580
 2243SOL    HW2 6786   2.095   4.558   3.752 -0.8252 -1.6897 -0.6742
 2244SOL     OW 6787   2.609   2.009   2.377  0.1503  0.1858 -0.3324
 2244SOL    HW1 6788   2.518   1.998   2.404  0.2137  1.1465  0.3095
 2244SOL    HW2 6789   2.615   1.962   2.293 -0.8818 -0.0306 -0.2990
 2245SOL     OW 6790   4.876   0.224   4.557  0.3733  0.5645  0.8349
 2245SOL    HW1 6791   4.951   0.271   4.522  0.6545  0.0937  0.7911
 2245SOL    HW2 6792   4.903   0.198   4.645  0.5120 -0.1705  0.5787
 2246SOL     OW 6793   0.283   1.622   0.608  0.7753 -0.0885  0.0637
 2246SOL    HW1 6794   0.257   1.569   0.684  0.4890  1.5672  1.1721
 2246SOL    HW2 6795   0.240   1.706   0.621  0.6678  0.2323 -2.0055
 2247SOL     OW 6796   4.682   3.175   0.538 -0.4632 -0.3742 -0.0674
 2247SOL    HW1 6797   4.588   3.189   0.554 -0.8071 -1.7055 -0.7356
 2247SOL    HW2 6798   4.687   3.085   0.504  1.1595 -0.6196  0.7492
 2248SOL     OW 6799   4.157   0.564   3.656  0.1258  0.1480  0.5400
 2248SOL    HW1 6800   4.195   0.616   3.585 -1.7462 -1.3526 -1.7050
 2248SOL    HW2 6801   4.108   0.628   3.708  0.3798  1.0877 -0.3269
 2249SOL     OW 6802   2.613   3.346   2.812  0.3023 -0.1592  0.2893
 2249SOL    HW1 6803   2.574   3.412   2.755  0.4378 -0.5805 -0.2944
 2249SOL    HW2 6804   2.571   3.264   2.786 -0.6894 -0.1602  1.7489
 2250SOL     OW 6805   4.801   4.218   0.427 -0.0602 -0.4024 -0.4692
 2250SOL    HW1 6806   4.742   4.290   0.448 -0.1339 -0.9917  1.5898
 2250SOL    HW2 6807   4.778   4.194   0.337 -1.3659  0.8655 -0.5193
 2251SOL     OW 6808   1.603   1.697   2.464 -0.2021 -0.1202 -0.2653
 2251SOL    HW1 6809   1.617   1.671   2.556  0.2494 -0.9276 -0.5504
 2251SOL    HW2 6810   1.508   1.697   2.454 -0.2436 -2.3812 -0.4067
 2252SOL     OW 6811   3.284   1.568   1.390  0.7880 -0.1803  0.4168
 2252SOL    HW1 6812   3.209   1.619   1.421 -1.5913 -2.6523 -0.8592
 2252SOL    HW2 6813   3.259   1.477   1.404  3.8445 -1.1267  0.4343
 2253SOL     OW 6814   2.207   3.977   2.344  0.2342 -0.3508  0.5202
 2253SOL    HW1 6815   2.183   4.054   2.293 -0.3744 -0.2931  0.8799
 2253SOL    HW2 6816   2.302   3.974   2.340  0.3221  0.8712  1.1386
 2254SOL     OW 6817   2.271   0.035   1.893  0.4398 -0.0220  0.8451
 2254SOL    HW1 6818   2.239   0.050   1.982  1.0915 -0.1647  1.1132
 2254SOL    HW2 6819   2.366   0.023   1.904  0.3245 -1.6864  0.3464
 2255SOL     OW 6820   3.175   0.298   0.454  0.3830  0.3871 -0.8129
 2255SOL    HW1 6821   3.161   0.205   0.471  0.1074  0.5774  0.0427
 2255SOL    HW2 6822   3.258   0.302   0.407  2.0690 -0.0605  1.9195
 2256SOL     OW 6823   0.237   3.947   1.269  0.3026  0.2718 -0.3458
 2256SOL    HW1 6824   0.251   3.853   1.265  1.6346  0.4654 -0.6962
 2256SOL    HW2 6825   0.180   3.966   1.195 -1.5296 -0.4757  0.7980
 2257SOL     OW 6826   4.899   1.269   3.324  0.2905  0.1956  0.2483
 2257SOL    HW1 6827   4.892   1.200   3.258  0.6607  1.4653 -1.1528
 2257SOL    HW2 6828   4.938   1.225   3.400  0.8743 -1.0597 -0.7385
 2258SOL     OW 6829   1.870   1.309   1.541  0.1191  0.2050 -0.2101
 2258SOL    HW1 6830   1.958   1.319   1.504  0.3031  2.4730  0.6949
 2258SOL    HW2 6831   1.885   1.295   1.635 -0.4566 -1.8090 -0.3742
 2259SOL     OW 6832   0.602   1.048   0.794 -0.1614  0.3607 -0.2139
 2259SOL    HW1 6833   0.607   1.139   0.766  0.9147  0.4908  0.3254
 2259SOL    HW2 6834   0.569   1.052   0.883 -2.2852  0.0432 -0.9469
 2260SOL     OW 6835   4.722   3.205   1.636  0.1837  0.3581  0.5881
 2260SOL    HW1 6836   4.704   3.174   1.548 -0.7055  2.6374 -0.0964
 2260SOL    HW2 6837   4.654   3.164   1.690 -0.9326  1.0559 -0.2600
 2261SOL     OW 6838   2.372   3.297   4.288 -0.1547  0.1084 -0.1063
 2261SOL    HW1 6839   2.299   3.313   4.228 -0.0448 -0.3462 -0.3658
 2261SOL    HW2 6840   2.433   3.369   4.270 -0.2144  0.0896 -0.3988
 2262SOL     OW 6841   2.926   1.597   3.188  0.4829  0.0294  0.6549
 2262SOL    HW1 6842   2.845   1.639   3.159  0.2499 -0.4160  0.6365
 2262SOL    HW2 6843   2.911   1.504   3.171  0.5120 -0.1939  1.8083
 2263SOL     OW 6844   4.227   0.450   2.045  0.0285  0.2463 -0.2423
 2263SOL    HW1 6845   4.299   0.507   2.020  0.4256  1.2919  2.8270
 2263SOL    HW2 6846   4.270   0.374   2.084 -0.5510 -0.4943 -1.0006
 2264SOL     OW 6847   3.386   1.413   2.665 -0.4416  0.5745 -0.0362
 2264SOL    HW1 6848   3.304   1.434   2.620 -0.5022 -0.2065 -0.3034
 2264SOL    HW2 6849   3.437   1.365   2.600 -0.0077  0.5462  0.3210
 2265SOL     OW 6850   0.246   0.063   2.510  0.3318  0.5085 -0.0368
 2265SOL    HW1 6851   0.176   0.108   2.556  0.3265  0.1874  0.2752
 2265SOL    HW2 6852   0.210   0.043   2.424  1.2802  3.6877 -1.3463
 2266SOL     OW 6853   3.271   1.948   2.498  0.9114 -0.1405 -0.1174
 2266SOL    HW1 6854   3.228   2.007   2.560  1.0190 -0.1548 -0.0292
 2266SOL    HW2 6855   3.341   2.001   2.460  0.1454  0.2355 -1.0584
 2267SOL     OW 6856   4.868   0.444   4.742 -0.0228  0.2295 -0.8791
 2267SOL    HW1 6857   4.804   0.395   4.691 -0.8244  0.2426  0.0914
 2267SOL    HW2 6858   4.878   0.394   4.823  1.4376  0.0630 -1.1236
 2268SOL     OW 6859   0.409   0.583   0.783  0.2638 -0.1310  0.1634
 2268SOL    HW1 6860   0.425   0.499   0.740  2.0761  0.6411 -0.8172
 2268SOL    HW2 6861   0.329   0.616   0.743 -0.8174 -1.6226  0.9963
 2269SOL     OW 6862   3.266   1.867   2.214  0.5401  0.1604 -0.1778
 2269SOL    HW1 6863   3.280   1.875   2.308 -0.9014  0.1673  0.0550
 2269SOL    HW2 6864   3.340   1.814   2.183 -0.1544 -1.7782  1.3213
 2270SOL     OW 6865   3.793   1.324   2.045 -0.0634 -0.2348  0.3850
 2270SOL    HW1 6866   3.798   1.387   2.117 -0.3164  0.0785  0.1363
 2270SOL    HW2 6867   3.707   1.282   2.056  1.1908 -2.5624  2.1796
 2271SOL     OW 6868   1.022   2.498   1.262  0.2123  0.0211  0.1989
 2271SOL    HW1 6869   1.063   2.494   1.348  0.0730 -1.5820  0.2161
 2271SOL    HW2 6870   1.070   2.568   1.217  1.4298 -0.2495  0.9972
 2272SOL     OW 6871   3.987   2.901   1.112  0.0206 -0.3115  0.3004
 2272SOL    HW1 6872   3.994   2.885   1.206 -0.3227  0.9519  0.5730
 2272SOL    HW2 6873   3.901   2.866   1.088  1.0411 -2.7795 -0.0754
 2273SOL     OW 6874   2.959   3.117   4.672 -0.3648  0.3610 -0.5907
 2273SOL    HW1 6875   3.053   3.100   4.671  0.3416  3.4831  0.9620
 2273SOL    HW2 6876   2.921   3.042   4.626  2.8399 -1.0204 -1.2815
 2274SOL     OW 6877   4.703   3.835   4.983  0.1119  0.0042 -0.0761
 2274SOL    HW1 6878   4.626   3.782   4.961  0.2718  0.2755 -1.3540
 2274SOL    HW2 6879   4.744   3.854   4.899  1.4252  0.1139  0.5624
 2275SOL     OW 6880   1.703   3.585   2.432 -0.5167 -0.0965  0.1130
 2275SOL    HW1 6881   1.663   3.502   2.458 -0.7800  0.1333  0.4523
 2275SOL    HW2 6882   1.635   3.650   2.449 -0.6567  0.0778 -1.0445
 2276SOL     OW 6883   4.472   1.718   3.880 -0.0455 -0.2846 -0.0064
 2276SOL    HW1 6884   4.553   1.671   3.861 -0.9008 -1.1524 -1.8044
 2276SOL    HW2 6885   4.494   1.810   3.866  0.8429 -0.4167  0.4335
 2277SOL     OW 6886   1.740   3.216   3.929 -0.2145 -0.3809 -0.0327
 2277SOL    HW1 6887   1.770   3.215   4.019 -0.0992 -1.7211 -0.0603
 2277SOL    HW2 6888   1.699   3.301   3.918  1.3335  0.5149  0.7499
 2278SOL     OW 6889   0.164   3.719   0.605 -0.0431  0.6706  0.5122
 2278SOL    HW1 6890   0.142   3.728   0.513 -1.1166  1.9944  0.8807
 2278SOL    HW2 6891   0.187   3.807   0.634  0.5350  0.2330  1.4619
 2279SOL     OW 6892   1.238   4.923   0.963 -0.3558  0.5931 -0.0699
 2279SOL    HW1 6893   1.198   4.858   1.022 -0.0433 -0.3744 -0.9011
 2279SOL    HW2 6894   1.163   4.968   0.924 -0.7893 -1.6726 -2.1442
 2280SOL     OW 6895   2.820   0.123   1.301 -0.0201 -0.2940  0.0218
 2280SOL    HW1 6896   2.845   0.172   1.223 -0.8665  0.0097 -0.0632
 2280SOL    HW2 6897   2.784   0.189   1.360 -0.9929 -0.7791 -0.0204
 2281SOL     OW 6898   1.023   4.110   0.033  0.2349  0.5619 -0.4856
 2281SOL    HW1 6899   1.051   4.120  -0.058  2.3066  0.8824  0.1475
 2281SOL    HW2 6900   1.027   4.016   0.049  0.5667  0.5678 -0.5274
 2282SOL     OW 6901   2.825   4.774   1.493 -0.1098 -0.3773 -0.0793
 2282SOL    HW1 6902   2.769   4.699   1.511 -0.8080  0.0982 -0.2169
 2282SOL    HW2 6903   2.764   4.845   1.471  0.5972 -0.4560 -2.5779
 2283SOL     OW 6904   4.328   1.100   1.604 -0.5323  0.3376 -0.0262
 2283SOL    HW1 6905   4.373   1.021   1.635 -0.0869  0.3320 -0.6649
 2283SOL    HW2 6906   4.257   1.067   1.549 -1.6266  0.3332  1.3543
 2284SOL     OW 6907   3.237   1.998   4.736 -0.4268  0.4183  0.4279
 2284SOL    HW1 6908   3.156   1.953   4.759 -0.3172 -0.1922 -0.3398
 2284SOL    HW2 6909   3.307   1.941   4.770 -0.2759 -0.2582 -0.9376
 2285SOL     OW 6910   1.345   0.052   4.812  0.1726 -0.1715 -0.1966
 2285SOL    HW1 6911   1.275   0.043   4.876 -1.6220 -2.1985 -2.2339
 2285SOL    HW2 6912   1.408   0.111   4.852 -2.9255  2.2131  1.5567
 2286SOL     OW 6913   0.725   3.961   2.703  0.3681  0.1562  0.1664
 2286SOL    HW1 6914   0.643   3.914   2.719  0.0696  1.0615  1.3891
 2286SOL    HW2 6915   0.750   3.995   2.789  1.5909  0.6021 -0.3527
 2287SOL     OW 6916   4.159   3.814   1.060  0.1550 -0.2009  0.1762
 2287SOL    HW1 6917   4.255   3.822   1.054  0.0688  0.5404 -0.4132
 2287SOL    HW2 6918   4.135   3.876   1.129 -0.0473  0.8834 -0.8465
 2288SOL     OW 6919   0.699   1.895   0.090 -0.0938 -1.0420  0.2416
 2288SOL    HW1 6920   0.654   1.905   0.006 -2.3991 -0.0213  1.5141
 2288SOL    HW2 6921   0.728   1.804   0.090 -2.2776 -1.8188 -0.6619
 2289SOL     OW 6922   0.101   2.688   3.224  0.4083  0.0540  0.0013
 2289SOL    HW1 6923   0.088   2.596   3.245  0.8585 -0.0939 -0.3711
 2289SOL    HW2 6924   0.017   2.717   3.188  0.6218 -0.5079 -0.9649
 2290SOL     OW 6925   4.572   4.633   2.687  0.0574 -0.0421 -0.8194
 2290SOL    HW1 6926   4.481   4.609   2.672  0.1080 -0.1511 -0.9626
 2290SOL    HW2 6927   4.569   4.702   2.753 -0.1038 -0.3351 -0.5156
 2291SOL     OW 6928   1.340   0.302   3.423 -0.3390 -0.0682  0.0069
 2291SOL    HW1 6929   1.255   0.299   3.381 -0.9196 -1.5785  1.1865
 2291SOL    HW2 6930   1.378   0.216   3.408 -0.3160 -0.4617  1.9611
 2292SOL     OW 6931   0.740   4.667   0.791 -0.3429  0.3797 -0.2551
 2292SOL    HW1 6932   0.813   4.703   0.741 -0.4260  0.4889 -0.2970
 2292SOL    HW2 6933   0.667   4.663   0.729 -0.4500  0.5301 -0.1390
 2293SOL     OW 6934   2.760   4.782   2.167  0.0554  0.6481 -0.2923
 2293SOL    HW1 6935   2.734   4.692   2.151 -0.8399  0.9786 -0.7561
 2293SOL    HW2 6936   2.835   4.797   2.109  0.2853  0.1724 -0.1203
 2294SOL     OW 6937   2.744   4.187   0.362 -0.8524 -0.0449  0.4061
 2294SOL    HW1 6938   2.707   4.242   0.431 -0.2570  0.4453  0.3396
 2294SOL    HW2 6939   2.703   4.218   0.282  0.3903  1.1358  0.2081
 2295SOL     OW 6940   2.481   3.632   4.775  0.2178 -0.5349 -0.5613
 2295SOL    HW1 6941   2.569   3.645   4.742 -0.1787 -0.9775 -1.8460
 2295SOL    HW2 6942   2.490   3.567   4.845  1.1164  0.6846  0.5012
 2296SOL     OW 6943   2.217   2.819   0.847  0.3812 -0.1716  0.4844
 2296SOL    HW1 6944   2.231   2.908   0.878  0.7725 -0.7055  1.8841
 2296SOL    HW2 6945   2.129   2.822   0.808  0.5829  0.9237  0.0537
 2297SOL     OW 6946   0.882   1.344   0.135 -0.4218 -0.2809 -0.3339
 2297SOL    HW1 6947   0.827   1.391   0.072 -0.1753  1.5713  0.7696
 2297SOL    HW2 6948   0.824   1.276   0.171 -1.2883  0.1741 -0.8283
 2298SOL     OW 6949   3.560   4.764   0.142  0.0670  0.2405 -0.2772
 2298SOL    HW1 6950   3.500   4.833   0.113 -1.1920 -0.8684 -0.4263
 2298SOL    HW2 6951   3.575   4.711   0.063 -0.9654 -1.0566  0.3568
 2299SOL     OW 6952   3.802   2.018   2.311  0.2967  0.2626  0.2670
 2299SOL    HW1 6953   3.787   1.946   2.372 -1.3996  0.8742  0.6264
 2299SOL    HW2 6954   3.895   2.010   2.287  0.3034 -1.6406  0.7708
 2300SOL     OW 6955   2.086   0.961   3.475 -0.8440  0.4655 -0.2178
 2300SOL    HW1 6956   2.007   0.918   3.442 -0.6536 -1.0562  1.2027
 2300SOL    HW2 6957   2.052   1.029   3.534 -1.1129 -0.4404  0.6938
 2301SOL     OW 6958   3.233   4.942   1.178  0.0230 -0.2084 -0.2278
 2301SOL    HW1 6959   3.148   4.898   1.178  0.3097 -0.7705  0.1222
 2301SOL    HW2 6960   3.256   4.951   1.270 -0.5867  1.8030 -0.2227
 2302SOL     OW 6961   0.174   0.647   3.526 -0.1765  0.3303  0.3992
 2302SOL    HW1 6962   0.237   0.680   3.463  1.0909 -0.8299  1.0066
 2302SOL    HW2 6963   0.187   0.552   3.526  0.1764  0.3239  2.6982
 2303SOL     OW 6964   3.212   2.734   3.729  0.4159 -0.2637  0.2040
 2303SOL    HW1 6965   3.171   2.791   3.793 -0.0964 -0.2226 -0.1537
 2303SOL    HW2 6966   3.304   2.731   3.754 -0.0039 -1.3417  1.7614
 2304SOL     OW 6967   1.790   2.285   0.313  0.2236 -0.2135  0.3319
 2304SOL    HW1 6968   1.810   2.241   0.395 -0.3037  0.1194  0.6446
 2304SOL    HW2 6969   1.694   2.289   0.311  0.2454  1.9517  0.8755
 2305SOL     OW 6970   2.125   0.979   1.951  0.2284  0.4082  0.4511
 2305SOL    HW1 6971   2.066   1.036   2.000  1.0462 -0.7284  2.9444
 2305SOL    HW2 6972   2.211   0.993   1.992  0.5518 -2.1324  0.8036
 2306SOL     OW 6973   3.323   3.728   0.545  0.1443  0.1560 -0.4141
 2306SOL    HW1 6974   3.322   3.822   0.561 -0.1301 -0.0012  0.5638
 2306SOL    HW2 6975   3.258   3.692   0.606 -0.0440 -0.6258 -1.0541
 2307SOL     OW 6976   1.665   2.997   4.783 -0.0644  0.3430  0.6282
 2307SOL    HW1 6977   1.664   2.910   4.822 -2.0525 -0.9621 -2.0077
 2307SOL    HW2 6978   1.747   3.000   4.733 -1.1252 -1.1310 -1.3284
 2308SOL     OW 6979   0.720   0.131   2.990 -0.0909  0.1384  0.1723
 2308SOL    HW1 6980   0.812   0.106   2.980  0.6310  2.5226  0.2667
 2308SOL    HW2 6981   0.722   0.226   3.000 -2.5563  0.2089  0.5646
 2309SOL     OW 6982   1.988   2.879   0.682  0.3105 -0.0728 -0.1257
 2309SOL    HW1 6983   1.955   2.875   0.592 -0.3947 -0.5921  0.1391
 2309SOL    HW2 6984   1.957   2.964   0.715 -1.9116 -1.0337  0.5028
 2310SOL     OW 6985   4.214   4.334   4.128  0.8469 -0.4320 -0.1552
 2310SOL    HW1 6986   4.304   4.321   4.098  1.0152 -1.6560  0.8464
 2310SOL    HW2 6987   4.163   4.336   4.047  1.5816 -1.3244 -0.6645
 2311SOL     OW 6988   1.992   1.717   4.198 -0.1899 -0.2596 -0.2399
 2311SOL    HW1 6989   1.913   1.679   4.237  0.3734 -0.0325  1.1548
 2311SOL    HW2 6990   2.064   1.670   4.238  0.4538  0.9059  0.0015
 2312SOL     OW 6991   1.273   2.967   1.957  0.6895 -0.6547 -0.2849
 2312SOL    HW1 6992   1.281   2.884   1.909 -0.8858  0.0484 -1.8904
 2312SOL    HW2 6993   1.201   2.952   2.018 -0.1942 -0.2298 -1.1964
 2313SOL     OW 6994   4.211   2.069   4.769  0.5283  0.0485 -0.0014
 2313SOL    HW1 6995   4.259   2.008   4.825  0.1766  0.3061  0.5774
 2313SOL    HW2 6996   4.233   2.156   4.802 -0.6587  0.1618  0.5402
 2314SOL     OW 6997   0.717   1.452   2.911  0.0664 -0.1316 -0.3792
 2314SOL    HW1 6998   0.772   1.420   2.839  0.8643 -0.3887  0.3293
 2314SOL    HW2 6999   0.779   1.474   2.980 -0.3738  3.1892 -0.8567
 2315SOL     OW 7000   0.988   0.147   0.912  0.0665  0.3887 -0.0400
 2315SOL    HW1 7001   0.957   0.139   1.002  1.4440  0.8946  0.4942
 2315SOL    HW2 7002   0.982   0.240   0.893 -1.4128  0.1471 -0.9413
 2316SOL     OW 7003   4.659   2.888   3.445  0.0393 -0.7855 -0.2740
 2316SOL    HW1 7004   4.589   2.938   3.486  0.9196 -0.0525  0.3452
 2316SOL    HW2 7005   4.658   2.917   3.353  1.2504  1.2375  0.2900
 2317SOL     OW 7006   1.492   3.908   2.344 -0.2674  0.1700  0.4116
 2317SOL    HW1 7007   1.490   3.833   2.403  0.9337 -0.8304 -0.7355
 2317SOL    HW2 7008   1.401   3.937   2.338 -1.5642 -3.5739 -1.9557
 2318SOL     OW 7009   2.531   4.297   1.616  0.1546 -0.4887 -0.1323
 2318SOL    HW1 7010   2.480   4.346   1.680 -1.6158  0.9211 -2.4832
 2318SOL    HW2 7011   2.562   4.220   1.665  2.2080  2.2720  3.4519
 2319SOL     OW 7012   3.282   2.489   2.960  0.1855  0.3493  0.3324
 2319SOL    HW1 7013   3.348   2.552   2.931 -0.1674 -0.2678 -2.0811
 2319SOL    HW2 7014   3.198   2.533   2.945 -0.0056  0.2442  1.0729
 2320SOL     OW 7015   4.536   2.742   4.527  0.3084 -0.4240  1.1902
 2320SOL    HW1 7016   4.611   2.703   4.481  0.7766 -0.2479  1.7898
 2320SOL    HW2 7017   4.526   2.688   4.606 -1.3147 -1.5523  0.2812
 2321SOL     OW 7018   3.764   4.462   0.340 -0.1274 -0.0687 -0.4052
 2321SOL    HW1 7019   3.725   4.473   0.253 -0.4041 -1.8388 -0.5455
 2321SOL    HW2 7020   3.706   4.510   0.399 -0.5269  0.2792 -1.0719
 2322SOL     OW 7021   1.016   2.013   3.619 -0.7595  0.1154  0.0903
 2322SOL    HW1 7022   1.006   2.002   3.524 -1.3393 -1.0901  0.2596
 2322SOL    HW2 7023   1.062   1.934   3.647 -1.7572 -0.1818  0.9716
 2323SOL     OW 7024   3.504   2.660   0.364  0.2829 -0.2644  0.2149
 2323SOL    HW1 7025   3.429   2.718   0.382  2.5516  2.6821  1.0021
 2323SOL    HW2 7026   3.546   2.649   0.449  0.1775 -2.8618 -0.0096
 2324SOL     OW 7027   3.228   4.755   0.120  0.3211 -0.2125  0.4010
 2324SOL    HW1 7028   3.296   4.786   0.181  1.6299  1.4599 -1.7829
 2324SOL    HW2 7029   3.207   4.831   0.066 -1.4672 -1.3947 -0.6682
 2325SOL     OW 7030   2.940   4.637   3.820  0.0769  0.2954 -0.3538
 2325SOL    HW1 7031   2.966   4.709   3.762 -0.6480 -0.9026 -2.2703
 2325SOL    HW2 7032   2.871   4.675   3.875 -1.5159  0.7304 -2.4862
 2326SOL     OW 7033   0.157   1.688   1.224  0.4299 -0.1477  0.0745
 2326SOL    HW1 7034   0.202   1.769   1.245  0.6177 -0.5899  1.5016
 2326SOL    HW2 7035   0.143   1.646   1.309 -0.5740 -1.1251 -0.5486
 2327SOL     OW 7036   1.104   2.889   0.041 -0.4758  0.0381  0.1727
 2327SOL    HW1 7037   1.021   2.840   0.035 -1.2061  1.2468  0.0661
 2327SOL    HW2 7038   1.113   2.909   0.135 -2.1999  2.9488 -0.1501
 2328SOL     OW 7039   4.595   1.781   2.294 -0.3368 -0.1741  0.1116
 2328SOL    HW1 7040   4.683   1.758   2.324 -0.0839  0.2860 -0.2711
 2328SOL    HW2 7041   4.599   1.771   2.199 -0.1872  1.5411 -0.0875
 2329SOL     OW 7042   0.565   1.486   1.845  0.4022  0.0259 -0.0650
 2329SOL    HW1 7043   0.632   1.509   1.909  0.0900  1.1538 -0.1363
 2329SOL    HW2 7044   0.537   1.398   1.871  0.6045  0.2794  1.0621
 2330SOL     OW 7045   0.913   3.390   4.425 -0.1097  0.1681  0.9452
 2330SOL    HW1 7046   0.994   3.373   4.472 -0.5234  0.6242  1.8518
 2330SOL    HW2 7047   0.871   3.461   4.474 -0.4639  0.8102 -0.2246
 2331SOL     OW 7048   4.318   1.595   1.426  0.1088  0.1464  0.0659
 2331SOL    HW1 7049   4.334   1.686   1.403 -0.7450  0.1005 -0.7914
 2331SOL    HW2 7050   4.243   1.598   1.486 -1.0744 -0.0796 -1.3392
 2332SOL     OW 7051   0.353   3.846   0.942 -0.2695  0.0692 -0.2168
 2332SOL    HW1 7052   0.301   3.926   0.938  0.6428  0.7125  0.4057
 2332SOL    HW2 7053   0.443   3.877   0.956 -0.0582 -1.1016  1.1248
 2333SOL     OW 7054   4.220   4.392   4.652  0.2693  0.8534  0.5595
 2333SOL    HW1 7055   4.256   4.453   4.587 -0.1718 -1.3063 -1.8506
 2333SOL    HW2 7056   4.132   4.425   4.670  0.2937  1.3147 -0.1428
 2334SOL     OW 7057   3.771   2.428   0.995 -0.1018 -0.1760 -0.4797
 2334SOL    HW1 7058   3.814   2.354   0.953  1.2029  0.9447 -1.2274
 2334SOL    HW2 7059   3.781   2.413   1.089  1.1481 -0.4206 -0.6316
 2335SOL     OW 7060   0.701   2.404   3.644 -0.1452 -0.7247 -0.4802
 2335SOL    HW1 7061   0.625   2.459   3.666  0.9277  0.7376 -0.2731
 2335SOL    HW2 7062   0.664   2.330   3.596 -1.6815  0.0724 -0.5839
 2336SOL     OW 7063   3.475   0.323   2.692  0.9583 -0.3043  0.1594
 2336SOL    HW1 7064   3.517   0.328   2.606  1.0282 -1.0853  0.1387
 2336SOL    HW2 7065   3.512   0.245   2.732 -1.0838 -1.5436 -0.2033
 2337SOL     OW 7066   1.881   0.980   1.816 -0.1112  0.3507  0.6222
 2337SOL    HW1 7067   1.873   0.975   1.721 -0.4974  0.4326  0.6521
 2337SOL    HW2 7068   1.976   0.988   1.831 -0.1426  1.8480  0.1779
 2338SOL     OW 7069   1.169   1.637   1.755  0.4843 -0.6402  0.2590
 2338SOL    HW1 7070   1.193   1.582   1.829  1.3366 -1.0281 -0.2868
 2338SOL    HW2 7071   1.179   1.580   1.679  0.2800 -0.0534 -0.2111
 2339SOL     OW 7072   3.957   3.403   2.755 -0.3728  0.0882 -0.3224
 2339SOL    HW1 7073   3.896   3.439   2.690 -0.7201  0.1937  0.0561
 2339SOL    HW2 7074   3.904   3.342   2.806 -0.1144  0.0463 -0.1011
 2340SOL     OW 7075   4.143   3.646   4.642  0.0946 -0.5568  0.0994
 2340SOL    HW1 7076   4.219   3.686   4.684 -0.1861  1.2695 -1.0391
 2340SOL    HW2 7077   4.178   3.597   4.568  0.1560  0.5880 -0.6429
 2341SOL     OW 7078   0.171   4.896   1.590  0.1598 -0.2955  0.0916
 2341SOL    HW1 7079   0.078   4.891   1.614  0.2376  0.5483  0.6070
 2341SOL    HW2 7080   0.170   4.913   1.496 -0.2213  0.0695  0.1571
 2342SOL     OW 7081   1.321   2.733   1.536  0.0861  0.1784 -0.7932
 2342SOL    HW1 7082   1.373   2.653   1.543  0.5549  0.5993  0.9284
 2342SOL    HW2 7083   1.381   2.797   1.498 -0.4195 -0.3562 -2.5911
 2343SOL     OW 7084   3.979   0.522   4.943 -0.2896 -0.3538 -0.0856
 2343SOL    HW1 7085   3.951   0.611   4.966  0.1017  0.0887 -1.2868
 2343SOL    HW2 7086   3.897   0.475   4.929 -0.5895 -0.7628  2.4647
 2344SOL     OW 7087   3.356   1.452   2.977 -0.0783  0.3497 -0.1681
 2344SOL    HW1 7088   3.384   1.386   2.913  1.8378  1.8748 -0.9898
 2344SOL    HW2 7089   3.329   1.527   2.924 -4.2928 -0.3558  0.6450
 2345SOL     OW 7090   3.527   1.497   2.253  0.3527  0.1992  0.2554
 2345SOL    HW1 7091   3.546   1.516   2.345  1.2275  0.1749  0.0842
 2345SOL    HW2 7092   3.494   1.407   2.254  0.5659  0.1211  0.5183
 2346SOL     OW 7093   0.699   2.408   2.502 -0.3239  0.0388 -0.3253
 2346SOL    HW1 7094   0.748   2.359   2.435 -0.7155  1.2820 -1.5677
 2346SOL    HW2 7095   0.621   2.356   2.517 -0.2262 -0.2664 -0.8404
 2347SOL     OW 7096   3.599   3.726   0.464 -0.1493 -0.0869  0.1726
 2347SOL    HW1 7097   3.553   3.645   0.438 -1.4611  1.5246 -3.1631
 2347SOL    HW2 7098   3.539   3.796   0.439  2.0795  1.9971  0.3729
 2348SOL     OW 7099   1.458   0.905   0.634 -0.1282 -0.8358  1.2060
 2348SOL    HW1 7100   1.540   0.889   0.681  0.6762 -3.1594 -0.7933
 2348SOL    HW2 7101   1.393   0.854   0.682  0.3391 -1.8027  0.8419
 2349SOL     OW 7102   1.577   2.653   2.269 -0.1436 -0.2073  0.1050
 2349SOL    HW1 7103   1.654   2.602   2.245 -1.1573 -1.5115 -0.5027
 2349SOL    HW2 7104   1.602   2.698   2.350  0.9202 -1.3725  0.4555
 2350SOL     OW 7105   2.862   2.206   3.160  0.1539  0.1213 -0.4433
 2350SOL    HW1 7106   2.935   2.264   3.180 -0.4150 -0.0486  2.6461
 2350SOL    HW2 7107   2.867   2.137   3.226 -1.4728 -1.1762 -1.5763
 2351SOL     OW 7108   0.395   4.389   0.430  0.1033 -0.2720  0.5811
 2351SOL    HW1 7109   0.328   4.327   0.457 -0.2840 -0.0961  0.0536
 2351SOL    HW2 7110   0.349   4.473   0.426  0.1785 -0.2601 -0.4271
 2352SOL     OW 7111   2.806   0.320   1.903  0.2754 -0.5805 -0.3106
 2352SOL    HW1 7112   2.721   0.295   1.866 -0.8208 -0.6845  2.1259
 2352SOL    HW2 7113   2.785   0.380   1.974  2.3427  0.2714 -0.3610
 2353SOL     OW 7114   0.932   3.836   4.686 -0.2600  0.3783  0.3774
 2353SOL    HW1 7115   1.021   3.851   4.653 -0.4588 -0.4114 -0.5676
 2353SOL    HW2 7116   0.944   3.824   4.780  0.7578 -0.6076  0.1457
 2354SOL     OW 7117   1.521   1.827   1.939 -0.0456  0.2737 -0.9937
 2354SOL    HW1 7118   1.509   1.753   1.998 -0.6469  0.8785 -0.3339
 2354SOL    HW2 7119   1.562   1.790   1.861 -4.0020 -1.6495 -2.4584
 2355SOL     OW 7120   4.956   0.171   2.521 -0.4302  0.5258  0.1360
 2355SOL    HW1 7121   4.946   0.251   2.470  1.5010  2.8650  3.0398
 2355SOL    HW2 7122   4.867   0.143   2.541 -1.1576  1.9529 -0.9425
 2356SOL     OW 7123   2.780   3.676   1.987 -0.1154 -0.0472 -0.0637
 2356SOL    HW1 7124   2.836   3.608   2.024  0.1924 -0.7912 -1.7828
 2356SOL    HW2 7125   2.693   3.656   2.019  0.1395 -0.6608  0.2636
 2357SOL     OW 7126   0.497   0.129   3.439 -0.0633 -0.2178  0.4312
 2357SOL    HW1 7127   0.578   0.171   3.412 -0.8437  0.4963 -0.8719
 2357SOL    HW2 7128   0.433   0.200   3.445 -1.0138 -0.9813 -0.2771
 2358SOL     OW 7129   0.394   2.910   2.928 -0.4460 -0.4305 -0.4820
 2358SOL    HW1 7130   0.369   2.883   2.840  2.4073  0.9274 -1.8629
 2358SOL    HW2 7131   0.409   2.828   2.975 -3.8398 -1.2187 -0.5298
 2359SOL     OW 7132   3.604   4.921   3.463 -0.0891 -0.1765 -0.0138
 2359SOL    HW1 7133   3.667   4.991   3.483 -1.6890  0.8436  1.7885
 2359SOL    HW2 7134   3.542   4.962   3.402  1.9783 -1.8003 -3.5380
 2360SOL     OW 7135   2.309   1.202   0.728  0.3827  0.3570 -0.4435
 2360SOL    HW1 7136   2.298   1.287   0.686 -0.8724  0.6646  0.4321
 2360SOL    HW2 7137   2.360   1.221   0.807  0.8191  0.1498 -0.6724
 2361SOL     OW 7138   4.309   3.098   2.244 -0.8943 -0.0269  0.1236
 2361SOL    HW1 7139   4.335   3.112   2.335 -1.2483 -0.4557  0.2936
 2361SOL    HW2 7140   4.269   3.011   2.243 -0.8684 -0.0385 -0.4476
 2362SOL     OW 7141   4.217   4.519   2.110 -0.0974 -0.0482 -0.3546
 2362SOL    HW1 7142   4.207   4.426   2.132 -2.0996  0.1740 -0.2130
 2362SOL    HW2 7143   4.270   4.554   2.182  1.0851 -1.1359 -0.6434
 2363SOL     OW 7144   0.612   2.769   1.069 -0.0703  0.6494 -0.1457
 2363SOL    HW1 7145   0.648   2.852   1.039  0.5409  0.2080 -0.6795
 2363SOL    HW2 7146   0.617   2.711   0.992 -2.6993  0.7730 -0.5094
 2364SOL     OW 7147   4.638   4.184   3.241 -0.8095  0.2940  0.2584
 2364SOL    HW1 7148   4.691   4.264   3.241 -0.4939  0.0867  0.5089
 2364SOL    HW2 7149   4.549   4.214   3.257 -0.7002  0.6022  0.2915
 2365SOL     OW 7150   1.126   2.576   3.941 -0.6576  0.4439  0.1412
 2365SOL    HW1 7151   1.133   2.485   3.911  0.5736  0.2983  0.8247
 2365SOL    HW2 7152   1.195   2.622   3.894  0.5221  0.4531  1.8140
 2366SOL     OW 7153   4.266   2.802   2.442  0.2417 -0.4468  0.1217
 2366SOL    HW1 7154   4.185   2.752   2.431  0.5706 -1.0283  0.2467
 2366SOL    HW2 7155   4.254   2.852   2.523 -0.0939 -0.3246 -0.0043
 2367SOL     OW 7156   1.100  -0.006   2.159  0.1678  0.1802 -0.3414
 2367SOL    HW1 7157   1.005  -0.009   2.145 -0.0660  0.2565  1.0034
 2367SOL    HW2 7158   1.126   0.081   2.129 -0.4336  0.6661  0.4887
 2368SOL     OW 7159   2.357   3.928   3.712 -0.0784  0.1022 -0.0130
 2368SOL    HW1 7160   2.381   3.982   3.787  1.6247  2.3233 -1.9521
 2368SOL    HW2 7161   2.418   3.955   3.643 -2.3512 -0.7960 -2.5965
 2369SOL     OW 7162   4.141   0.651   1.430  0.4364  0.2021 -0.0060
 2369SOL    HW1 7163   4.087   0.586   1.387 -0.0640 -2.4948  4.0733
 2369SOL    HW2 7164   4.208   0.674   1.366 -1.7028 -1.2794 -2.9742
 2370SOL     OW 7165   3.326   0.345   4.991  0.3685 -0.3952  0.0273
 2370SOL    HW1 7166   3.345   0.411   4.924  0.8566  1.3517  1.8083
 2370SOL    HW2 7167   3.241   0.310   4.966 -0.1837  1.3344 -0.6844
 2371SOL     OW 7168   1.986   4.144   3.901  0.0611  0.2931 -0.1903
 2371SOL    HW1 7169   2.054   4.183   3.956  0.4536 -1.2970  0.5198
 2371SOL    HW2 7170   1.950   4.217   3.852  0.7489  1.5389  1.0732
 2372SOL     OW 7171   1.916   4.685   4.429  0.0173 -0.2680 -0.5063
 2372SOL    HW1 7172   1.925   4.662   4.522  0.9022  0.3202 -0.4319
 2372SOL    HW2 7173   1.840   4.744   4.427 -0.7373 -1.2000 -0.3469
 2373SOL     OW 7174   0.726   4.423   4.927  0.0132  0.4915  0.6324
 2373SOL    HW1 7175   0.649   4.445   4.874  0.0199  1.6902  1.0897
 2373SOL    HW2 7176   0.765   4.507   4.949  3.5007 -0.0284 -2.5046
 2374SOL     OW 7177   4.471   4.237   4.503 -0.5047  0.3578 -0.2583
 2374SOL    HW1 7178   4.392   4.288   4.523 -0.7157  0.3471 -1.0429
 2374SOL    HW2 7179   4.441   4.166   4.447 -0.2439 -0.7906  1.0142
 2375SOL     OW 7180   4.561   3.043   4.507  0.5702  0.8306  0.0144
 2375SOL    HW1 7181   4.529   3.038   4.417 -1.6764 -0.1607  0.8153
 2375SOL    HW2 7182   4.563   2.953   4.537  1.1944  1.1637  1.0152
 2376SOL     OW 7183   3.502   1.725   0.980 -0.2860  0.4435 -0.5838
 2376SOL    HW1 7184   3.444   1.658   0.944  1.3078 -0.2491 -1.9982
 2376SOL    HW2 7185   3.456   1.808   0.964 -0.9155 -0.0841 -1.6440
 2377SOL     OW 7186   2.538   1.785   4.084  0.2420  0.2509 -0.6718
 2377SOL    HW1 7187   2.620   1.749   4.049 -0.4150 -1.3867 -0.6268
 2377SOL    HW2 7188   2.497   1.711   4.128  0.3138  1.8320  2.3245
 2378SOL     OW 7189   3.580   1.632   1.869  0.5444 -0.7116 -0.5541
 2378SOL    HW1 7190   3.645   1.616   1.800 -1.0772 -1.2997 -2.0239
 2378SOL    HW2 7191   3.523   1.555   1.867 -0.5617  0.0451  0.2627
 2379SOL     OW 7192   0.271   4.049   4.186  0.5640  0.4617  0.4618
 2379SOL    HW1 7193   0.186   4.080   4.156  1.0814  2.1293  0.6444
 2379SOL    HW2 7194   0.314   4.016   4.107  0.3737  1.1236  0.0785
 2380SOL     OW 7195   1.844   2.008   4.885  0.0321  0.0842  0.1791
 2380SOL    HW1 7196   1.776   2.074   4.898  0.1628  0.2444  0.0542
 2380SOL    HW2 7197   1.861   1.973   4.973  0.7592  1.0098  0.4202
 2381SOL     OW 7198   0.726   3.297   3.843  0.3197  0.3634 -0.5886
 2381SOL    HW1 7199   0.787   3.369   3.857  1.1262 -0.4539  0.2521
 2381SOL    HW2 7200   0.746   3.235   3.913  0.1048 -0.9857 -1.6757
 2382SOL     OW 7201   4.506   4.093   1.496  0.6730  0.1862 -0.0460
 2382SOL    HW1 7202   4.573   4.072   1.561 -0.0952 -0.0623  0.6772
 2382SOL    HW2 7203   4.423   4.076   1.540  0.1092  1.0768 -0.7254
 2383SOL     OW 7204   4.718   1.153   1.962 -0.1997  0.6964 -0.0674
 2383SOL    HW1 7205   4.689   1.098   1.889 -0.5563  0.3266  0.3441
 2383SOL    HW2 7206   4.701   1.099   2.040 -1.0118  1.5889  0.3841
 2384SOL     OW 7207   1.910   0.387   2.760 -0.1079 -0.8520 -0.1914
 2384SOL    HW1 7208   1.816   0.402   2.768 -0.7231 -3.7319 -0.6799
 2384SOL    HW2 7209   1.932   0.335   2.838  0.9567 -0.7444 -0.4067
 2385SOL     OW 7210   4.106   4.126   4.684  0.1890 -0.3310 -0.0083
 2385SOL    HW1 7211   4.149   4.207   4.709 -1.4809  1.3746 -2.2939
 2385SOL    HW2 7212   4.170   4.081   4.629  1.3345 -0.9151  1.7228
 2386SOL     OW 7213   0.969   4.394   3.380 -0.3945  0.6749  0.5432
 2386SOL    HW1 7214   0.884   4.370   3.418  0.1999  1.0966  2.2186
 2386SOL    HW2 7215   1.026   4.406   3.455  1.5897 -1.1197 -0.5677
 2387SOL     OW 7216   4.931   0.336   1.940 -0.4873  0.4308  0.0791
 2387SOL    HW1 7217   4.937   0.242   1.955  1.3606  0.4921 -0.1070
 2387SOL    HW2 7218   5.007   0.357   1.886  0.1585  2.3144  1.6051
 2388SOL     OW 7219   4.452   1.311   2.638  0.0884 -0.1793 -0.2756
 2388SOL    HW1 7220   4.389   1.299   2.567 -1.0532 -1.6564  0.9247
 2388SOL    HW2 7221   4.530   1.264   2.609 -0.3940 -0.8375 -0.5464
 2389SOL     OW 7222   1.979   2.930   2.216  0.1807 -0.1383 -0.4557
 2389SOL    HW1 7223   2.022   2.844   2.218 -0.4131 -0.4865 -1.4999
 2389SOL    HW2 7224   1.961   2.950   2.308  2.1172 -0.1898 -0.0254
 2390SOL     OW 7225   2.781   3.637   4.657  0.4868 -0.5038 -0.4921
 2390SOL    HW1 7226   2.841   3.662   4.587  0.7571  0.4636  0.0753
 2390SOL    HW2 7227   2.816   3.678   4.735 -0.5124 -0.5363 -0.0118
 2391SOL     OW 7228   4.546   3.616   3.292  0.1629  0.6997  0.3234
 2391SOL    HW1 7229   4.627   3.666   3.279  0.9460 -0.3924  0.8310
 2391SOL    HW2 7230   4.517   3.640   3.380  0.8118 -0.0841  0.7660
 2392SOL     OW 7231   1.508   2.250   0.332 -0.3488  0.3948  0.0197
 2392SOL    HW1 7232   1.503   2.343   0.309 -1.5530  0.9317  2.1283
 2392SOL    HW2 7233   1.437   2.209   0.283 -0.5486  0.7975 -0.0329
 2393SOL     OW 7234   0.118   3.781   4.604 -0.2270 -0.4384 -0.2600
 2393SOL    HW1 7235   0.168   3.714   4.558 -0.9024 -0.0994 -1.5259
 2393SOL    HW2 7236   0.180   3.819   4.666  0.8500 -0.5926 -1.2109
 2394SOL     OW 7237   2.218   1.246   0.261  0.4419 -0.2533 -0.4378
 2394SOL    HW1 7238   2.312   1.267   0.269  0.2780 -0.0345  1.2406
 2394SOL    HW2 7239   2.191   1.293   0.182  1.6976 -0.1274 -0.8263
 2395SOL     OW 7240   3.411   4.499   4.517  0.1506 -0.2485  0.0475
 2395SOL    HW1 7241   3.411   4.441   4.594  1.5348  1.1628  1.1766
 2395SOL    HW2 7242   3.381   4.443   4.445  1.0206 -2.2526  1.1570
 2396SOL     OW 7243   0.191   2.992   3.946 -0.4347 -0.1030  0.5210
 2396SOL    HW1 7244   0.163   2.988   4.037 -0.5005 -1.6197  0.4590
 2396SOL    HW2 7245   0.264   3.055   3.945 -1.1610  0.7685  1.4003
 2397SOL     OW 7246   0.538   2.315   4.888  0.6577  0.1431  0.5745
 2397SOL    HW1 7247   0.462   2.321   4.946  0.0259  2.9441 -0.3868
 2397SOL    HW2 7248   0.610   2.351   4.940  0.7037  0.0492  0.5747
 2398SOL     OW 7249   0.195   1.797   4.804 -0.4182  0.1268  0.0902
 2398SOL    HW1 7250   0.100   1.806   4.796 -0.1687  2.4733 -1.2081
 2398SOL    HW2 7251   0.216   1.716   4.759 -1.6444  0.6509 -1.5109
 2399SOL     OW 7252   4.763   1.283   3.936  0.0493 -0.2651  0.2628
 2399SOL    HW1 7253   4.807   1.346   3.993  0.8438 -1.0590  0.5325
 2399SOL    HW2 7254   4.702   1.237   3.993  0.3743 -0.6120  0.3268
 2400SOL     OW 7255   2.056   4.915   1.281 -0.0605 -0.2810 -0.3310
 2400SOL    HW1 7256   2.123   4.871   1.229  0.5509  2.0388 -1.6271
 2400SOL    HW2 7257   1.985   4.932   1.218 -1.2260 -1.2935  0.6547
 2401SOL     OW 7258   0.067   4.490   0.116  0.2784 -0.2610  0.0830
 2401SOL    HW1 7259   0.124   4.529   0.050  1.1025  0.1708  1.0378
 2401SOL    HW2 7260   0.086   4.396   0.110  2.1624 -0.0154  1.3254
 2402SOL     OW 7261   4.416   2.588   2.102  0.3228 -0.3776  0.3971
 2402SOL    HW1 7262   4.361   2.514   2.077 -0.9801  0.2862  1.1806
 2402SOL    HW2 7263   4.448   2.624   2.019 -1.8169  0.2330 -0.2024
 2403SOL     OW 7264   2.296   3.941   1.169 -0.3646  0.2039  0.2432
 2403SOL    HW1 7265   2.276   3.987   1.088  0.5260 -0.3636 -0.3100
 2403SOL    HW2 7266   2.390   3.924   1.165 -0.8356 -2.8827 -0.2418
 2404SOL     OW 7267   1.640   2.212   0.951  0.7180  0.2380 -0.3218
 2404SOL    HW1 7268   1.698   2.136   0.955 -1.7913 -1.7487  0.3311
 2404SOL    HW2 7269   1.616   2.229   1.042  1.3861  2.0242 -0.4253
 2405SOL     OW 7270   4.288   1.247   3.972 -0.6078 -0.4210 -0.4272
 2405SOL    HW1 7271   4.349   1.175   3.989 -1.5505 -1.3155 -0.7615
 2405SOL    HW2 7272   4.345   1.320   3.947  0.3313 -1.2710 -0.8621
 2406SOL     OW 7273   0.078   3.429   2.919 -0.6510 -0.4306  0.2162
 2406SOL    HW1 7274   0.104   3.520   2.929  2.1044 -1.1651  0.3575
 2406SOL    HW2 7275   0.113   3.402   2.835 -0.5681 -1.6376  0.6154
 2407SOL     OW 7276   3.573   2.469   4.046  0.9037  0.0180  0.4709
 2407SOL    HW1 7277   3.639   2.421   3.995  0.1172  0.4053 -0.9845
 2407SOL    HW2 7278   3.497   2.412   4.046  0.8530  0.0880  1.1124
 2408SOL     OW 7279   3.668   0.435   0.269 -0.5609  0.2915  0.6713
 2408SOL    HW1 7280   3.726   0.413   0.342 -0.9641 -0.2600  0.8293
 2408SOL    HW2 7281   3.661   0.530   0.272  1.9770  0.6075 -0.6055
 2409SOL     OW 7282   1.723   3.990   0.541  0.2501 -1.0250 -0.6096
 2409SOL    HW1 7283   1.631   3.993   0.567  0.7273 -2.7260  1.6391
 2409SOL    HW2 7284   1.738   4.072   0.494 -2.1144 -0.1857 -0.0408
 2410SOL     OW 7285   2.003   3.507   4.025  0.2840 -0.2387  0.3555
 2410SOL    HW1 7286   1.963   3.455   4.095 -0.3520  0.9541  0.8933
 2410SOL    HW2 7287   2.055   3.573   4.070  2.9980 -1.7623 -0.3114
 2411SOL     OW 7288   4.014   1.451   4.554 -0.4939  0.0295 -0.3958
 2411SOL    HW1 7289   4.004   1.430   4.461 -0.9424  1.9813 -0.8459
 2411SOL    HW2 7290   4.108   1.463   4.566 -0.3169 -1.3121 -0.3086
 2412SOL     OW 7291   1.835   4.372   3.167  0.0980  0.0930 -0.7632
 2412SOL    HW1 7292   1.775   4.392   3.096 -0.4398 -0.0138 -0.3482
 2412SOL    HW2 7293   1.806   4.429   3.239  1.1574  0.8129 -0.8864
 2413SOL     OW 7294   1.129   0.846   0.622 -1.0480  0.2125  0.2787
 2413SOL    HW1 7295   1.050   0.898   0.610 -1.1915 -0.0878 -0.0859
 2413SOL    HW2 7296   1.158   0.867   0.711 -2.2419 -0.6415  0.8840
 2414SOL     OW 7297   2.466   2.166   4.384 -0.2116 -0.0236  0.3276
 2414SOL    HW1 7298   2.417   2.113   4.322 -0.5590  0.7950 -0.1144
 2414SOL    HW2 7299   2.557   2.162   4.353 -0.3044 -0.0272  0.0535
 2415SOL     OW 7300   4.868   0.595   2.917  0.2612  0.1588 -0.1001
 2415SOL    HW1 7301   4.899   0.596   2.827 -0.3314 -0.4891 -0.3198
 2415SOL    HW2 7302   4.899   0.511   2.952 -1.2313 -0.5163 -0.3352
 2416SOL     OW 7303   0.163   2.284   2.645  0.5411  0.2235 -0.5002
 2416SOL    HW1 7304   0.147   2.264   2.738  0.0679  1.2206 -0.3546
 2416SOL    HW2 7305   0.204   2.205   2.611  1.2865  0.0536  0.7086
 2417SOL     OW 7306   0.046   4.197   3.553  0.3731 -0.1354 -0.4279
 2417SOL    HW1 7307   0.085   4.208   3.640  0.0511  0.8084 -0.3902
 2417SOL    HW2 7308   0.078   4.112   3.523  0.6950 -0.3556  0.5063
 2418SOL     OW 7309   2.744   1.771   1.957  0.2660 -0.6847  0.0911
 2418SOL    HW1 7310   2.755   1.744   1.866  2.0096  0.7721 -0.1699
 2418SOL    HW2 7311   2.719   1.863   1.953  1.6591 -0.2270  1.0802
 2419SOL     OW 7312   4.763   2.646   3.378 -0.1876  0.0595 -0.7557
 2419SOL    HW1 7313   4.831   2.624   3.442 -1.5135 -0.6311  0.4856
 2419SOL    HW2 7314   4.736   2.735   3.401 -1.1289 -0.4298  0.1304
 2420SOL     OW 7315   0.774   3.127   1.266 -0.4351  0.2861 -0.3991
 2420SOL    HW1 7316   0.800   3.044   1.307 -0.5623 -0.9389 -2.6564
 2420SOL    HW2 7317   0.761   3.187   1.340  1.5557 -1.1311  1.2072
 2421SOL     OW 7318   4.521   3.411   1.301 -0.4486 -0.4138 -0.4813
 2421SOL    HW1 7319   4.600   3.435   1.349 -2.7991  1.1596  3.0109
 2421SOL    HW2 7320   4.473   3.353   1.361 -3.1808  0.9561 -1.1920
 2422SOL     OW 7321   2.904   4.120   1.678 -0.2171 -0.2278  0.0529
 2422SOL    HW1 7322   2.889   4.042   1.731  1.7968 -2.0257 -1.8182
 2422SOL    HW2 7323   2.924   4.189   1.741  1.8118 -2.1753  1.6846
 2423SOL     OW 7324   4.860   3.299   0.685  0.2414 -0.4789  0.6270
 2423SOL    HW1 7325   4.932   3.252   0.644 -0.6269 -0.2214 -1.3077
 2423SOL    HW2 7326   4.786   3.238   0.681 -0.4430  0.3829 -0.3068
 2424SOL     OW 7327   0.404   2.058   2.663 -0.3720  0.3412  0.1882
 2424SOL    HW1 7328   0.444   1.982   2.621 -2.6686 -1.3716  0.8579
 2424SOL    HW2 7329   0.408   2.127   2.597  1.6110 -0.3903 -0.5157
 2425SOL     OW 7330   3.345   1.644   0.087  0.2504  0.1497 -0.0596
 2425SOL    HW1 7331   3.431   1.659   0.048 -0.2294  0.4194 -1.0410
 2425SOL    HW2 7332   3.351   1.682   0.175  1.8143 -1.7582  0.7530
 2426SOL     OW 7333   2.786   1.339   1.265  0.5734 -0.1490  0.2036
 2426SOL    HW1 7334   2.829   1.318   1.348 -0.5065 -1.2212  0.5226
 2426SOL    HW2 7335   2.855   1.379   1.212  2.0480 -2.0232  0.5963
 2427SOL     OW 7336   3.892   0.945   4.474  0.9060  0.0492 -0.0801
 2427SOL    HW1 7337   3.854   0.955   4.561  1.1057  1.7144 -0.1444
 2427SOL    HW2 7338   3.830   0.891   4.426  0.3678 -0.1623  0.8411
 2428SOL     OW 7339   4.465   2.252   2.389  0.0515 -0.0528 -0.1854
 2428SOL    HW1 7340   4.497   2.304   2.315 -0.0746 -0.7997 -0.7756
 2428SOL    HW2 7341   4.540   2.247   2.448  1.5373 -2.7238 -2.0631
 2429SOL     OW 7342   3.472   2.717   2.935 -0.5283 -0.8450  0.2524
 2429SOL    HW1 7343   3.390   2.766   2.929 -0.8566 -1.3933  0.1479
 2429SOL    HW2 7344   3.529   2.771   2.990  0.1382  1.0111 -2.0851
 2430SOL     OW 7345   1.567   3.015   4.366  0.2156 -0.0868  0.5396
 2430SOL    HW1 7346   1.599   2.959   4.296  1.1449  0.5218  0.4503
 2430SOL    HW2 7347   1.503   2.962   4.413  0.9713 -1.1624  0.3828
 2431SOL     OW 7348   2.394   4.347   4.849 -0.2208 -0.0896 -0.0207
 2431SOL    HW1 7349   2.449   4.372   4.774 -0.2030  0.8044  0.2728
 2431SOL    HW2 7350   2.330   4.418   4.856 -1.0616 -0.8313 -0.0019
 2432SOL     OW 7351   2.760   2.858   2.966 -0.4056  0.3205  0.5254
 2432SOL    HW1 7352   2.837   2.887   2.916  0.8711 -3.6803 -0.2078
 2432SOL    HW2 7353   2.769   2.900   3.051  2.3108  0.4477  0.2598
 2433SOL     OW 7354   2.956   3.479   2.051  0.2028 -0.2497 -0.1325
 2433SOL    HW1 7355   2.885   3.414   2.056 -0.3183  0.1660 -1.5090
 2433SOL    HW2 7356   3.016   3.443   1.985  0.8407 -0.1874  0.4049
 2434SOL     OW 7357   2.130   0.449   3.365 -0.4281 -0.2831  0.6432
 2434SOL    HW1 7358   2.220   0.482   3.362 -0.4599 -0.0897  1.5221
 2434SOL    HW2 7359   2.140   0.354   3.362 -0.2138 -0.2530  0.3666
 2435SOL     OW 7360   4.995   4.608   1.022  0.4052  0.2715  0.0666
 2435SOL    HW1 7361   4.955   4.665   1.088 -1.2581  0.1672 -0.7948
 2435SOL    HW2 7362   4.927   4.597   0.956  1.8606 -0.0356 -1.4345
 2436SOL     OW 7363   0.899   3.512   3.866  0.4831  0.2322 -0.7742
 2436SOL    HW1 7364   0.815   3.545   3.898 -0.4734 -1.0165 -1.9162
 2436SOL    HW2 7365   0.963   3.543   3.931 -0.8317  1.2584  0.0778
 2437SOL     OW 7366   1.174   3.264   0.297  0.2646  0.0596  0.0351
 2437SOL    HW1 7367   1.141   3.303   0.216  0.1993 -1.1394 -0.5264
 2437SOL    HW2 7368   1.157   3.170   0.288 -0.1190 -0.0488  1.6205
 2438SOL     OW 7369   1.961   0.851   2.752 -0.0448 -0.3220  0.4410
 2438SOL    HW1 7370   1.994   0.820   2.837 -1.0055 -2.1347  0.2084
 2438SOL    HW2 7371   2.026   0.820   2.689  0.8023  1.2477  0.5061
 2439SOL     OW 7372   0.554   2.157   3.842 -0.0209 -0.5362  0.0145
 2439SOL    HW1 7373   0.589   2.221   3.904 -0.1884  0.4434 -0.8771
 2439SOL    HW2 7374   0.599   2.175   3.760 -1.4203 -0.3092 -0.7360
 2440SOL     OW 7375   0.927   0.731   2.980  0.5213 -0.2286 -0.3721
 2440SOL    HW1 7376   0.924   0.637   2.962  0.9135 -0.1864 -0.6779
 2440SOL    HW2 7377   0.995   0.764   2.921 -0.4327  0.4374 -1.1089
 2441SOL     OW 7378   1.212   1.835   0.519  0.1318  0.1689  0.5625
 2441SOL    HW1 7379   1.282   1.841   0.453  0.6693  0.3570  1.1347
 2441SOL    HW2 7380   1.257   1.853   0.602 -0.4854 -0.3284  1.0072
 2442SOL     OW 7381   2.460   2.753   3.145 -0.2625 -0.0513 -0.2199
 2442SOL    HW1 7382   2.474   2.792   3.231  1.4271  1.5775 -1.1664
 2442SOL    HW2 7383   2.504   2.668   3.150  0.8388  0.5160  0.2016
 2443SOL     OW 7384   1.876   4.340   2.657  0.2453  0.1604 -0.2477
 2443SOL    HW1 7385   1.842   4.252   2.670 -0.7763  0.7848  1.5588
 2443SOL    HW2 7386   1.799   4.392   2.633  0.6951  0.7413 -0.4559
 2444SOL     OW 7387  -0.004   0.779   4.276  0.3669  0.0395 -1.0182
 2444SOL    HW1 7388   0.052   0.707   4.308  0.4669  0.5152 -0.0783
 2444SOL    HW2 7389   0.045   0.858   4.296 -0.4824  0.4510 -0.5006
 2445SOL     OW 7390   3.470   4.090   3.186  0.2865 -0.0636  0.0130
 2445SOL    HW1 7391   3.415   4.149   3.238 -0.5354 -0.7885 -0.0057
 2445SOL    HW2 7392   3.444   4.107   3.096  1.4250  0.9044 -0.1629
 2446SOL     OW 7393   0.999   4.198   3.816 -0.1964 -0.6971 -0.5925
 2446SOL    HW1 7394   1.017   4.230   3.728 -0.0958 -0.4665 -0.4884
 2446SOL    HW2 7395   1.009   4.103   3.809 -1.2104 -0.7795 -1.0665
 2447SOL     OW 7396   2.640   3.812   3.016 -0.5587  0.3480  0.3450
 2447SOL    HW1 7397   2.693   3.772   3.085 -2.2407  0.2217  1.6236
 2447SOL    HW2 7398   2.582   3.741   2.988  0.3600  0.2723 -1.5504
 2448SOL     OW 7399   3.670   1.392   3.972 -0.1262  0.0082 -0.1043
 2448SOL    HW1 7400   3.585   1.436   3.968  0.0887  0.3909 -0.4919
 2448SOL    HW2 7401   3.718   1.425   3.896  0.4732  0.0037  0.2692
 2449SOL     OW 7402   3.100   2.308   1.168  0.1665  0.4358  0.0755
 2449SOL    HW1 7403   3.142   2.352   1.242  0.1094 -0.2958  0.5606
 2449SOL    HW2 7404   3.130   2.217   1.174 -0.8172  0.0842 -0.0468
 2450SOL     OW 7405   0.746   2.149   1.589 -0.0783 -0.3668  0.5074
 2450SOL    HW1 7406   0.693   2.218   1.628 -0.5514 -1.1722  1.3208
 2450SOL    HW2 7407   0.717   2.144   1.498 -0.7832 -0.2131  0.7204
 2451SOL     OW 7408   2.797   2.632   2.636  0.0841  0.0148 -0.0202
 2451SOL    HW1 7409   2.716   2.681   2.651  0.5285  0.5159  0.8143
 2451SOL    HW2 7410   2.781   2.583   2.555 -1.0238  0.1627  0.0928
 2452SOL     OW 7411   4.779   3.328   2.886 -0.2924 -0.0852  0.2355
 2452SOL    HW1 7412   4.733   3.353   2.966  0.5035  0.1740  0.6236
 2452SOL    HW2 7413   4.863   3.375   2.891  1.1114 -2.5017  0.8052
 2453SOL     OW 7414   1.401   0.907   3.573  0.1186 -0.2320 -0.1797
 2453SOL    HW1 7415   1.476   0.854   3.546  0.3785 -0.3288  0.7098
 2453SOL    HW2 7416   1.381   0.877   3.661 -1.7578 -1.0747 -0.8441
 2454SOL     OW 7417   4.149   3.481   3.773  0.2746  0.3187 -0.1378
 2454SOL    HW1 7418   4.171   3.521   3.689  1.6794  0.3216  0.2057
 2454SOL    HW2 7419   4.224   3.500   3.829 -1.2436  1.5512  1.5884
 2455SOL     OW 7420   0.139   3.934   2.315  0.1601  0.3837  0.1379
 2455SOL    HW1 7421   0.069   3.967   2.258  0.4013  0.0909 -0.3352
 2455SOL    HW2 7422   0.185   3.869   2.262 -0.8594 -1.3910  1.3640
 2456SOL     OW 7423   4.875   2.924   1.629  0.4407 -0.6682  0.1032
 2456SOL    HW1 7424   4.954   2.922   1.576  0.9650 -1.5729  0.8964
 2456SOL    HW2 7425   4.829   3.003   1.600 -0.1436 -1.9893 -2.9136
 2457SOL     OW 7426   3.622   0.699   4.840 -0.4013 -0.2663 -0.0970
 2457SOL    HW1 7427   3.690   0.762   4.819  0.1190 -0.9092 -0.3833
 2457SOL    HW2 7428   3.667   0.632   4.892 -1.3622  0.6189  2.0367
 2458SOL     OW 7429   2.075   0.081   2.091 -0.0810 -0.4509 -0.6825
 2458SOL    HW1 7430   2.037   0.025   2.023 -1.5314  0.3766 -0.5743
 2458SOL    HW2 7431   2.013   0.077   2.164  2.2625 -2.7099  1.3836
 2459SOL     OW 7432   0.178   3.472   4.281 -0.1229  0.1295 -0.8105
 2459SOL    HW1 7433   0.235   3.417   4.228 -0.3883 -0.9327 -0.0288
 2459SOL    HW2 7434   0.120   3.410   4.327  0.2659  0.9771  0.9182
 2460SOL     OW 7435   0.495   2.446   3.812 -0.2052 -0.1086 -0.0620
 2460SOL    HW1 7436   0.544   2.437   3.894  0.7625  0.7846 -0.5238
 2460SOL    HW2 7437   0.404   2.433   3.838  0.2090 -1.1814  0.9148
 2461SOL     OW 7438   4.067   4.411   0.752  0.1307  0.0753 -0.1636
 2461SOL    HW1 7439   4.020   4.465   0.688  2.5209  0.6380 -1.5470
 2461SOL    HW2 7440   4.016   4.420   0.832 -0.5365  2.9717 -0.8062
 2462SOL     OW 7441   2.352   0.661   1.159 -0.1368 -0.2580 -0.5353
 2462SOL    HW1 7442   2.266   0.626   1.184 -0.5245 -0.2082 -1.7541
 2462SOL    HW2 7443   2.358   0.744   1.207  0.1254 -1.1988  1.1437
 2463SOL     OW 7444   1.657   0.505   4.262 -0.0388 -0.5247 -0.1189
 2463SOL    HW1 7445   1.583   0.566   4.258 -1.5302 -2.3129 -1.5865
 2463SOL    HW2 7446   1.729   0.558   4.297 -1.6081  1.6708  0.0528
 2464SOL     OW 7447   1.043   4.094   1.603  0.2747 -0.1000 -0.9228
 2464SOL    HW1 7448   0.984   4.052   1.540  1.2891 -1.0664 -1.2768
 2464SOL    HW2 7449   1.130   4.081   1.565  0.8578 -0.1414  0.3739
 2465SOL     OW 7450   3.769   3.446   2.566 -0.1517 -0.2838  0.1095
 2465SOL    HW1 7451   3.752   3.503   2.491  0.8639  1.8393  1.3837
 2465SOL    HW2 7452   3.735   3.361   2.540  0.5667  0.2330 -2.9199
 2466SOL     OW 7453   4.461   1.330   4.325 -0.3550 -0.0733 -0.6651
 2466SOL    HW1 7454   4.459   1.410   4.272  0.6213  0.6303  0.3214
 2466SOL    HW2 7455   4.433   1.358   4.412  1.0155 -0.5755 -0.0402
 2467SOL     OW 7456   2.115   0.439   2.320  0.3697 -0.1339  0.0152
 2467SOL    HW1 7457   2.058   0.479   2.385 -0.4750 -1.4080  0.1030
 2467SOL    HW2 7458   2.080   0.467   2.236  0.2230 -0.0997  0.0876
 2468SOL     OW 7459   0.287   0.507   3.279 -0.2677 -0.1186  0.3905
 2468SOL    HW1 7460   0.369   0.485   3.235  1.8942  0.3287  3.8651
 2468SOL    HW2 7461   0.272   0.599   3.258 -0.4044 -0.4108 -0.9035
 2469SOL     OW 7462   4.139   3.097   3.218 -0.3600  0.2205 -0.0595
 2469SOL    HW1 7463   4.081   3.038   3.265  0.5591  0.8384  1.9557
 2469SOL    HW2 7464   4.224   3.087   3.261  1.1266 -0.6860 -2.9368
 2470SOL     OW 7465   3.015   2.586   0.525  0.0878  0.7699 -0.1037
 2470SOL    HW1 7466   3.074   2.517   0.555 -3.0688 -1.4846  1.5870
 2470SOL    HW2 7467   3.010   2.647   0.598 -0.4833  0.3219  0.2461
 2471SOL     OW 7468   1.020   4.410   2.298  0.4592  0.3539  0.1640
 2471SOL    HW1 7469   0.971   4.330   2.277  0.9204  0.6202 -2.2903
 2471SOL    HW2 7470   0.999   4.428   2.389 -0.8233 -1.7531  0.3496
 2472SOL     OW 7471   1.634   1.402   4.552 -0.0210  0.0209 -0.8176
 2472SOL    HW1 7472   1.595   1.456   4.620 -1.6537 -1.2265 -0.7032
 2472SOL    HW2 7473   1.603   1.441   4.470 -0.3945 -0.1396 -0.7575
 2473SOL     OW 7474   3.064   0.170   4.149  0.1268  0.2911 -0.8493
 2473SOL    HW1 7475   3.145   0.137   4.110  0.2606 -0.0655 -0.2742
 2473SOL    HW2 7476   3.023   0.221   4.079  2.1834  2.8051 -0.3705
 2474SOL     OW 7477   4.562   4.639   2.274 -0.5858 -0.0311  0.2007
 2474SOL    HW1 7478   4.478   4.668   2.307 -0.6762 -0.0376 -0.0199
 2474SOL    HW2 7479   4.562   4.664   2.181 -1.0096 -1.4704 -0.2175
 2475SOL     OW 7480   1.334   4.526   0.133  0.5002 -0.4309  0.0956
 2475SOL    HW1 7481   1.335   4.615   0.168  0.9769 -0.1618 -0.5706
 2475SOL    HW2 7482   1.245   4.496   0.147  0.5220 -0.1082  0.9696
 2476SOL     OW 7483   3.422   4.947   4.714 -0.4487 -0.0413 -1.1563
 2476SOL    HW1 7484   3.516   4.931   4.710 -0.5989 -0.8988 -1.4397
 2476SOL    HW2 7485   3.396   4.965   4.624 -0.2711  2.0781 -0.8544
 2477SOL     OW 7486   2.932   0.718   2.615 -0.1622 -0.6410 -0.1001
 2477SOL    HW1 7487   2.926   0.798   2.562  1.0788 -0.0909  0.5258
 2477SOL    HW2 7488   2.842   0.697   2.637 -0.5513  0.3099 -0.7023
 2478SOL     OW 7489   4.305   4.639   0.570 -0.4362  0.3134  0.2192
 2478SOL    HW1 7490   4.392   4.646   0.530  0.2424  1.9353  1.8519
 2478SOL    HW2 7491   4.253   4.592   0.505  1.8090 -1.3087 -0.5381
 2479SOL     OW 7492   3.952   4.045   2.465 -0.2132 -0.9697 -0.2605
 2479SOL    HW1 7493   4.045   4.032   2.483 -0.1475 -1.0259 -0.6290
 2479SOL    HW2 7494   3.950   4.096   2.384 -0.4984 -0.5624  0.0016
 2480SOL     OW 7495   2.002   3.491   0.636  0.3606 -0.5118 -0.8503
 2480SOL    HW1 7496   2.042   3.544   0.705  0.7144 -0.7781 -0.8507
 2480SOL    HW2 7497   2.069   3.426   0.613 -0.2368 -1.2554 -0.5205
 2481SOL     OW 7498   1.711   2.912   1.150  0.4451 -0.4697  0.3520
 2481SOL    HW1 7499   1.769   2.888   1.222 -0.3255 -2.1983  0.4613
 2481SOL    HW2 7500   1.769   2.922   1.075  1.1933  0.8351  1.0744
 2482SOL     OW 7501   4.073   3.038   0.205  0.3657 -0.1041 -0.2651
 2482SOL    HW1 7502   4.090   3.112   0.263  0.6491  0.0682 -0.5627
 2482SOL    HW2 7503   4.069   3.077   0.118 -3.1637  0.1203 -0.1212
 2483SOL     OW 7504   1.888   1.952   2.209 -0.1265 -0.2780  0.4976
 2483SOL    HW1 7505   1.888   1.927   2.301 -0.3934  0.6287  0.7471
 2483SOL    HW2 7506   1.976   1.986   2.193 -0.9991  2.5946  1.2805
 2484SOL     OW 7507   3.600   1.663   3.225  0.5243 -0.6824  0.5349
 2484SOL    HW1 7508   3.636   1.674   3.137  0.8523 -0.9860  0.6268
 2484SOL    HW2 7509   3.628   1.741   3.272  0.1069 -0.3826  0.2922
 2485SOL     OW 7510   1.765   3.403   3.219  0.5290  0.3046  0.0938
 2485SOL    HW1 7511   1.773   3.358   3.135 -0.4024  1.2585 -0.5308
 2485SOL    HW2 7512   1.688   3.363   3.260  0.2844  0.6466 -0.0296
 2486SOL     OW 7513   3.278   0.920   2.320 -0.1504  0.1635  0.7522
 2486SOL    HW1 7514   3.270   0.988   2.387  2.1883  1.8270 -0.5014
 2486SOL    HW2 7515   3.292   0.968   2.238  0.7774 -1.8107 -0.3301
 2487SOL     OW 7516   2.680   3.623   0.642 -0.1285 -0.4147  0.2771
 2487SOL    HW1 7517   2.757   3.568   0.630 -0.9259 -1.8439  1.3413
 2487SOL    HW2 7518   2.655   3.649   0.553  1.4531 -0.0414 -0.0918
 2488SOL     OW 7519   1.176   1.320   0.663  0.0216 -0.5977 -0.0559
 2488SOL    HW1 7520   1.085   1.328   0.692  0.6730 -0.3393  2.0676
 2488SOL    HW2 7521   1.216   1.403   0.687  0.5874 -0.2683 -1.9988
 2489SOL     OW 7522   4.089   0.510   1.667  0.7900 -0.2093  0.7752
 2489SOL    HW1 7523   4.094   0.579   1.601  0.0011  1.0659  1.9910
 2489SOL    HW2 7524   3.998   0.511   1.696  0.7978 -1.6675  0.9506
 2490SOL     OW 7525   3.017   4.629   3.226  0.4073  0.1204 -0.1220
 2490SOL    HW1 7526   3.038   4.611   3.317 -1.8709  0.2575  0.4923
 2490SOL    HW2 7527   3.044   4.550   3.179  1.5000  0.0036  0.6490
 2491SOL     OW 7528   4.808   1.658   2.719 -0.0297  0.2324 -0.4809
 2491SOL    HW1 7529   4.721   1.690   2.697  0.0033  0.2589 -0.5739
 2491SOL    HW2 7530   4.836   1.711   2.794  0.0663  0.4913 -0.6982
 2492SOL     OW 7531   0.997   2.810   2.881 -0.2721 -0.2286  0.1218
 2492SOL    HW1 7532   1.001   2.715   2.870 -0.0161 -0.1283 -0.6945
 2492SOL    HW2 7533   1.000   2.845   2.792  3.7608  0.7198  0.4321
 2493SOL     OW 7534   4.637   3.987   1.274 -0.0535  0.2532 -0.2869
 2493SOL    HW1 7535   4.599   4.030   1.350  0.0192  0.7089 -0.5058
 2493SOL    HW2 7536   4.609   3.895   1.282 -0.2579  0.3501  0.1482
 2494SOL     OW 7537   2.850   1.429   1.725 -0.4913  0.0650  0.4593
 2494SOL    HW1 7538   2.808   1.514   1.730  0.2407  0.4063  1.1132
 2494SOL    HW2 7539   2.937   1.443   1.763 -0.9379 -1.3324  2.1730
 2495SOL     OW 7540   0.407   0.985   2.004  0.1398  0.3240  0.1235
 2495SOL    HW1 7541   0.371   0.978   1.915  0.9077 -2.6483 -0.0610
 2495SOL    HW2 7542   0.332   0.968   2.061 -0.1258  1.1284  0.0272
 2496SOL     OW 7543   2.633   1.687   2.839 -0.1425 -0.3345  0.5098
 2496SOL    HW1 7544   2.658   1.595   2.846  1.7601  0.0568 -0.4716
 2496SOL    HW2 7545   2.581   1.704   2.917 -0.9063 -2.3367  0.5064
 2497SOL     OW 7546   4.435   0.882   0.035 -0.4117  0.4862  0.1480
 2497SOL    HW1 7547   4.341   0.898   0.043 -0.3847  1.5729 -1.4343
 2497SOL    HW2 7548   4.443   0.822  -0.039  0.1885  0.9878 -0.1955
 2498SOL     OW 7549   2.555   4.854   0.673 -0.3596  0.0827  0.1007
 2498SOL    HW1 7550   2.626   4.794   0.650  0.5126  0.7659  0.9134
 2498SOL    HW2 7551   2.475   4.803   0.661  0.3010 -0.8725 -0.3220
 2499SOL     OW 7552   3.078   3.782   2.324 -0.6566  0.6554 -0.4070
 2499SOL    HW1 7553   2.985   3.802   2.314 -0.5271  0.6566 -1.8411
 2499SOL    HW2 7554   3.080   3.687   2.335 -0.8696  0.7414  0.4480
 2500SOL     OW 7555   2.774   4.437   0.106  0.1818  0.3759  0.1208
 2500SOL    HW1 7556   2.861   4.417   0.141 -0.3664  1.1332  2.0602
 2500SOL    HW2 7557   2.731   4.352   0.098  0.4181  0.1575  1.0933
 2501SOL     OW 7558   0.539   1.230   1.931  0.0820  0.0188  0.2560
 2501SOL    HW1 7559   0.499   1.156   1.976 -1.9837  1.1753  0.4303
 2501SOL    HW2 7560   0.576   1.192   1.851  0.6756 -1.4663  1.1811
 2502SOL     OW 7561   3.176   2.685   1.058  0.5642  0.0699 -0.3551
 2502SOL    HW1 7562   3.166   2.717   1.147 -0.8195 -2.3660  0.4386
 2502SOL    HW2 7563   3.090   2.649   1.035  1.4428 -1.1650 -1.9073
 2503SOL     OW 7564   3.399   2.237   4.916  0.1593  0.1870  0.1408
 2503SOL    HW1 7565   3.385   2.143   4.931  0.4708  0.4455  2.3407
 2503SOL    HW2 7566   3.342   2.280   4.980 -0.3542  1.5404 -1.1792
 2504SOL     OW 7567   2.752   2.645   4.783  0.0543  0.2132  0.1478
 2504SOL    HW1 7568   2.789   2.595   4.856  0.1776  0.4022  0.2165
 2504SOL    HW2 7569   2.823   2.704   4.757 -0.3927  1.0077  0.6809
 2505SOL     OW 7570   2.611   3.719   3.862 -0.6039  0.6903 -0.1536
 2505SOL    HW1 7571   2.646   3.649   3.808  0.3557 -1.0108  2.4759
 2505SOL    HW2 7572   2.517   3.703   3.866 -0.4408 -0.2339  0.0820
 2506SOL     OW 7573   4.460   0.358   1.476 -0.0265 -0.3744 -0.8049
 2506SOL    HW1 7574   4.505   0.287   1.522 -1.2905 -1.3161 -0.9552
 2506SOL    HW2 7575   4.474   0.339   1.383  1.3032  0.7127 -0.8494
 2507SOL     OW 7576   4.361   3.437   2.375 -0.6381  0.2453 -0.3741
 2507SOL    HW1 7577   4.360   3.363   2.436 -0.0715 -0.0063 -0.6597
 2507SOL    HW2 7578   4.269   3.458   2.360 -0.7794  0.2709  0.5174
 2508SOL     OW 7579   0.138   4.162   3.813  0.8669  0.3610 -0.2851
 2508SOL    HW1 7580   0.221   4.128   3.847  0.1640 -1.2368 -0.1063
 2508SOL    HW2 7581   0.071   4.121   3.866 -0.1233  0.1308 -1.6550
 2509SOL     OW 7582   3.195   4.716   4.190  0.2677  0.4865 -0.1899
 2509SOL    HW1 7583   3.124   4.656   4.164  0.5213  1.3387 -3.2861
 2509SOL    HW2 7584   3.150   4.799   4.208  0.3542  0.7729 -1.2297
 2510SOL     OW 7585   0.757   1.631   4.999 -0.4803  0.4769 -0.2509
 2510SOL    HW1 7586   0.826   1.595   4.943  0.1065  0.3176  0.5721
 2510SOL    HW2 7587   0.677   1.587   4.968  0.2075 -1.6006  0.7312
 2511SOL     OW 7588   3.461   4.507   1.425  0.2976 -0.2903  0.1605
 2511SOL    HW1 7589   3.444   4.534   1.515 -0.6943  0.7689 -0.3096
 2511SOL    HW2 7590   3.538   4.557   1.399 -0.0771  0.2525  0.0766
 2512SOL     OW 7591   0.527   0.234   4.894 -0.4220  0.5096 -0.5728
 2512SOL    HW1 7592   0.588   0.307   4.906  0.2330 -0.1630  0.2827
 2512SOL    HW2 7593   0.509   0.202   4.983  0.8121 -1.5700 -0.9921
 2513SOL     OW 7594   1.011   4.750   4.683 -0.2185 -0.6052  0.0868
 2513SOL    HW1 7595   1.084   4.808   4.662  0.8061 -1.4921  1.0862
 2513SOL    HW2 7596   0.937   4.809   4.698  0.4397  0.3404 -0.2890
 2514SOL     OW 7597   4.717   2.624   3.747 -0.2055  0.2682 -0.2943
 2514SOL    HW1 7598   4.626   2.618   3.717 -0.4326  2.0031 -0.0554
 2514SOL    HW2 7599   4.730   2.717   3.766  0.6947 -0.3309  2.4898
 2515SOL     OW 7600   2.453   1.167   0.983  0.4912 -0.1198 -0.4363
 2515SOL    HW1 7601   2.537   1.124   1.000 -1.4379 -3.0737  3.1676
 2515SOL    HW2 7602   2.441   1.225   1.058 -0.1533  1.3829 -1.6547
 2516SOL     OW 7603   4.053   1.414   2.579  0.6517 -0.0133 -0.6532
 2516SOL    HW1 7604   4.133   1.457   2.610 -0.1414  0.5104  0.6964
 2516SOL    HW2 7605   4.022   1.471   2.508 -0.2384  1.5474  0.9330
 2517SOL     OW 7606   1.599   4.058   3.685 -0.1501 -0.5242  0.5328
 2517SOL    HW1 7607   1.684   4.022   3.660  0.7333  1.0767  1.0701
 2517SOL    HW2 7608   1.569   4.001   3.756  0.8408 -0.6681  0.8557
 2518SOL     OW 7609   2.268   4.313   3.324  0.1561  0.1658 -0.5621
 2518SOL    HW1 7610   2.339   4.320   3.388  0.6573 -0.7704 -0.9989
 2518SOL    HW2 7611   2.306   4.263   3.252 -1.3214 -1.5291 -0.2339
 2519SOL     OW 7612   0.020   1.224   0.436  0.2714  0.1374  0.3145
 2519SOL    HW1 7613   0.025   1.159   0.506 -0.5390 -1.9029 -1.4194
 2519SOL    HW2 7614   0.107   1.225   0.398  0.9736  1.9040  1.8136
 2520SOL     OW 7615   2.601   0.851   4.436  0.8126  0.1663 -0.3879
 2520SOL    HW1 7616   2.539   0.909   4.391  0.6311 -0.0684 -0.4443
 2520SOL    HW2 7617   2.547   0.807   4.502  0.4158 -1.6441 -1.8282
 2521SOL     OW 7618   3.175   2.962   1.987 -0.5035 -0.4316 -0.0366
 2521SOL    HW1 7619   3.189   2.875   1.952  1.1737  0.4536 -1.7325
 2521SOL    HW2 7620   3.251   2.978   2.043  0.0435  0.5197 -1.0193
 2522SOL     OW 7621   4.026   1.473   3.574  0.3794 -0.2053 -0.2889
 2522SOL    HW1 7622   4.096   1.537   3.569 -0.0660  0.1951 -2.4139
 2522SOL    HW2 7623   4.051   1.405   3.512 -0.9555 -0.1817 -0.8867
 2523SOL     OW 7624   3.253   0.078   1.906  0.1295 -0.2180  0.2599
 2523SOL    HW1 7625   3.344   0.108   1.904  0.2483 -0.5781  0.1967
 2523SOL    HW2 7626   3.230   0.062   1.815 -0.7273  2.0019  0.0171
 2524SOL     OW 7627   3.806   1.199   0.138 -0.5148 -0.1620  0.1606
 2524SOL    HW1 7628   3.818   1.141   0.213  0.4092  1.2629  1.1903
 2524SOL    HW2 7629   3.854   1.279   0.162 -2.2547  1.2870 -0.8949
 2525SOL     OW 7630   4.443   4.000   0.940 -0.0564  0.0807 -0.0684
 2525SOL    HW1 7631   4.467   3.933   1.005 -0.4541 -0.4534 -0.4623
 2525SOL    HW2 7632   4.470   4.083   0.980 -1.1497 -0.1357  1.2093
 2526SOL     OW 7633   0.110   1.471   0.245  0.3204  0.1589 -0.3304
 2526SOL    HW1 7634   0.110   1.413   0.321  0.8220 -2.0271 -1.8825
 2526SOL    HW2 7635   0.023   1.461   0.207  0.6306 -0.1335 -0.9809
 2527SOL     OW 7636   0.074   4.019   1.046 -0.1802  0.3862 -0.4112
 2527SOL    HW1 7637  -0.014   4.040   1.078  0.1376  0.8019  0.2024
 2527SOL    HW2 7638   0.060   3.953   0.978 -0.8273 -1.0861  1.0842
 2528SOL     OW 7639   3.151   1.979   0.438  0.5777  0.1106  0.0534
 2528SOL    HW1 7640   3.116   2.064   0.464  1.8601  0.4884  0.6384
 2528SOL    HW2 7641   3.147   1.925   0.517  1.1383  0.1041  0.0808
 2529SOL     OW 7642   1.962   0.657   1.646  0.3643 -0.6690  0.6359
 2529SOL    HW1 7643   1.993   0.697   1.728 -0.0612  0.4564  0.2773
 2529SOL    HW2 7644   2.041   0.628   1.602  0.5465 -1.9396  1.7617
 2530SOL     OW 7645   4.015   3.074   4.909 -0.1449  0.3304  0.5483
 2530SOL    HW1 7646   4.084   3.083   4.843 -0.8229 -2.2959 -0.6558
 2530SOL    HW2 7647   3.948   3.137   4.884  0.3880  0.6066 -0.2054
 2531SOL     OW 7648   1.510   0.734   4.571  0.2976  0.0064  0.5013
 2531SOL    HW1 7649   1.445   0.703   4.507 -0.1682  0.1072  0.9242
 2531SOL    HW2 7650   1.544   0.654   4.611 -2.1987  0.0035  2.8921
 2532SOL     OW 7651   2.394   4.483   4.094 -0.2353  0.4275 -0.2506
 2532SOL    HW1 7652   2.461   4.427   4.056  2.0003  2.3834  0.5805
 2532SOL    HW2 7653   2.356   4.431   4.165 -0.9848 -1.3867 -1.8833
 2533SOL     OW 7654   1.120   3.927   0.966 -0.5189 -0.1631  0.4014
 2533SOL    HW1 7655   1.030   3.898   0.949 -0.5711 -0.4886  1.1801
 2533SOL    HW2 7656   1.171   3.893   0.893 -0.7890 -1.2007  0.6789
 2534SOL     OW 7657   4.108   4.159   0.598  0.0901 -0.3801 -0.0637
 2534SOL    HW1 7658   4.135   4.106   0.672  0.6854  0.3201  0.2339
 2534SOL    HW2 7659   4.102   4.248   0.633 -2.3909 -0.4222 -0.1653
 2535SOL     OW 7660   0.954   0.952   1.740 -0.1391 -0.1025  0.1815
 2535SOL    HW1 7661   0.943   0.866   1.699  1.2508 -0.5074  0.6036
 2535SOL    HW2 7662   0.910   1.013   1.681  0.5515 -0.8493 -1.1404
 2536SOL     OW 7663   1.392   2.819   4.429 -0.3366 -0.0266  0.2608
 2536SOL    HW1 7664   1.357   2.771   4.503  1.5671  0.7613  1.7651
 2536SOL    HW2 7665   1.420   2.751   4.367  0.8320 -0.8518  1.6335
 2537SOL     OW 7666   2.488   3.488   2.327  0.1238  0.4066 -0.2892
 2537SOL    HW1 7667   2.464   3.565   2.276  0.2399  1.4019  1.1015
 2537SOL    HW2 7668   2.433   3.493   2.405  1.7846  0.3582  0.9215
 2538SOL     OW 7669   4.304   1.474   1.904  0.3066  0.1358 -0.3235
 2538SOL    HW1 7670   4.365   1.403   1.883 -0.9938 -1.5405  1.1862
 2538SOL    HW2 7671   4.342   1.517   1.980  2.5033  2.9918 -2.8287
 2539SOL     OW 7672   4.689   4.669   0.958  0.2691  0.2265 -0.1023
 2539SOL    HW1 7673   4.670   4.641   0.868  2.6441 -0.4317 -0.4751
 2539SOL    HW2 7674   4.688   4.764   0.954  1.0013  0.2226 -1.0402
 2540SOL     OW 7675   1.162   1.025   4.931 -0.2442  0.3644 -0.8571
 2540SOL    HW1 7676   1.114   0.999   5.010  2.3240  1.8612  1.4074
 2540SOL    HW2 7677   1.214   0.948   4.908  0.8922  0.6838  0.5307
 2541SOL     OW 7678   2.355   1.159   2.799 -0.1304 -0.5353  0.6183
 2541SOL    HW1 7679   2.345   1.253   2.810  0.1439 -0.4465  0.1347
 2541SOL    HW2 7680   2.301   1.138   2.722  0.5681 -0.6135  0.1391
 2542SOL     OW 7681   0.343   0.446   1.527 -0.5536 -0.2217  1.0399
 2542SOL    HW1 7682   0.330   0.513   1.594 -2.6252 -0.7846  1.2573
 2542SOL    HW2 7683   0.261   0.445   1.477  0.3978 -0.8365 -0.5898
 2543SOL     OW 7684   3.502   0.803   0.586  0.7003  0.0577 -0.0302
 2543SOL    HW1 7685   3.492   0.719   0.540  0.2004  0.0937  0.0105
 2543SOL    HW2 7686   3.514   0.867   0.517 -1.8928  0.3921 -0.2506
 2544SOL     OW 7687   1.543   3.462   0.937  0.3430 -0.6096  0.2247
 2544SOL    HW1 7688   1.463   3.441   0.889  0.6117 -1.9554  0.3209
 2544SOL    HW2 7689   1.513   3.514   1.012 -0.1581  0.8947 -0.9627
 2545SOL     OW 7690   2.086   1.262   3.373  0.4454 -0.1897  0.2601
 2545SOL    HW1 7691   2.001   1.218   3.375 -0.6129  1.6829 -0.3607
 2545SOL    HW2 7692   2.099   1.284   3.281  2.4307 -1.8576  0.0777
 2546SOL     OW 7693   1.822   2.000   1.511  0.2979 -0.1811  0.2545
 2546SOL    HW1 7694   1.885   1.961   1.572  1.1087  0.2457 -0.2926
 2546SOL    HW2 7695   1.760   2.047   1.567  0.4640 -0.6002  0.7997
 2547SOL     OW 7696   1.184   2.276   3.449  0.1719 -0.2420  0.9350
 2547SOL    HW1 7697   1.127   2.351   3.434  0.8412  0.2633  0.8872
 2547SOL    HW2 7698   1.158   2.213   3.382 -1.0398 -0.4480  1.5690
 2548SOL     OW 7699   3.359   1.164   0.872 -0.1377  0.3021 -0.3881
 2548SOL    HW1 7700   3.275   1.132   0.838 -0.3493 -0.5359  0.8648
 2548SOL    HW2 7701   3.351   1.159   0.967 -0.1546  4.1317 -0.0459
 2549SOL     OW 7702   0.868   2.516   1.852 -0.4335 -0.1928  0.1346
 2549SOL    HW1 7703   0.787   2.525   1.802 -0.3544  0.7026  0.1469
 2549SOL    HW2 7704   0.858   2.578   1.925 -0.1058 -0.7114  0.6337
 2550SOL     OW 7705   1.491   1.157   3.132  0.1867 -0.3955  0.4413
 2550SOL    HW1 7706   1.471   1.146   3.224  0.2070 -0.0332  0.4886
 2550SOL    HW2 7707   1.550   1.085   3.112  0.2455 -0.4280  0.7303
 2551SOL     OW 7708   3.384   1.676   3.427  0.1627  0.2346 -0.0499
 2551SOL    HW1 7709   3.453   1.674   3.360 -0.0518  1.2353 -0.3171
 2551SOL    HW2 7710   3.313   1.726   3.386 -1.1384 -1.6204 -0.1512
 2552SOL     OW 7711   1.588   3.751   0.886  0.0649  0.2899 -0.0092
 2552SOL    HW1 7712   1.622   3.661   0.880 -0.6194 -0.1411  1.9483
 2552SOL    HW2 7713   1.665   3.806   0.874  0.6331 -0.5642 -0.4438
 2553SOL     OW 7714   4.286   2.827   3.017 -0.0969 -0.0243  0.9991
 2553SOL    HW1 7715   4.219   2.768   3.053 -0.1409 -0.0815  0.8244
 2553SOL    HW2 7716   4.241   2.911   3.009 -0.7087 -0.4894 -0.8471
 2554SOL     OW 7717   3.656   3.455   4.768  0.1753  0.1025 -0.4910
 2554SOL    HW1 7718   3.630   3.426   4.681  0.9235 -3.0800  0.2349
 2554SOL    HW2 7719   3.643   3.550   4.766  0.0765  0.1432 -3.9964
 2555SOL     OW 7720   2.215   1.392   1.777  0.2087  0.4427 -0.0304
 2555SOL    HW1 7721   2.238   1.442   1.698 -0.3290  2.7489  1.1833
 2555SOL    HW2 7722   2.292   1.401   1.834  0.7758 -1.5936 -0.4151
 2556SOL     OW 7723   0.485   0.472   4.034 -0.0239  0.6018  0.1808
 2556SOL    HW1 7724   0.519   0.451   4.121  2.7646  0.5958 -0.8055
 2556SOL    HW2 7725   0.414   0.410   4.021  1.1927 -1.1849  1.4595
 2557SOL     OW 7726   3.705   1.011   4.036 -1.2704 -1.0516  0.8177
 2557SOL    HW1 7727   3.687   1.019   3.942 -0.1835 -1.4776  0.5544
 2557SOL    HW2 7728   3.649   1.077   4.077 -1.3286 -0.4585 -0.1780
 2558SOL     OW 7729   3.902   1.893   0.770  0.0440  0.6475  0.3069
 2558SOL    HW1 7730   3.971   1.905   0.835  0.0700  0.4053  0.3257
 2558SOL    HW2 7731   3.942   1.920   0.687 -0.4067  2.2485  0.5821
 2559SOL     OW 7732   0.350   4.228   2.338 -0.1346  0.0056 -0.1810
 2559SOL    HW1 7733   0.274   4.253   2.285 -0.4770 -0.2249  0.1916
 2559SOL    HW2 7734   0.378   4.309   2.381  1.1465  0.5497 -1.9368
 2560SOL     OW 7735   3.283   4.335   3.226 -0.5178 -0.1347  0.5256
 2560SOL    HW1 7736   3.253   4.392   3.297  0.6255 -1.8450  2.4947
 2560SOL    HW2 7737   3.265   4.246   3.257  2.3444 -1.0598 -0.1282
 2561SOL     OW 7738   4.866   3.156   3.353 -0.0936  0.1791  0.0415
 2561SOL    HW1 7739   4.907   3.103   3.422  0.7110  0.4582 -0.2110
 2561SOL    HW2 7740   4.902   3.120   3.271 -0.0030  0.7219 -0.1594
 2562SOL     OW 7741   1.043   0.432   2.653 -0.5206  0.5089  0.7645
 2562SOL    HW1 7742   1.028   0.340   2.636  1.2505  0.5039 -1.0866
 2562SOL    HW2 7743   0.957   0.473   2.643 -0.7229 -0.4366 -2.2345
 2563SOL     OW 7744   3.782   1.832   2.542  0.0338 -0.0925  0.1685
 2563SOL    HW1 7745   3.835   1.775   2.598 -0.5148 -0.5612  0.2093
 2563SOL    HW2 7746   3.790   1.919   2.582  1.9490  0.1620 -0.6321
 2564SOL     OW 7747   3.994   4.008   0.411  0.7362  0.4245  0.3741
 2564SOL    HW1 7748   4.028   4.054   0.487  1.7366 -0.7751  0.6929
 2564SOL    HW2 7749   3.936   3.941   0.447 -0.4025  1.1619 -0.0532
 2565SOL     OW 7750   2.746   1.716   1.653 -0.5947  0.3227 -0.0432
 2565SOL    HW1 7751   2.709   1.649   1.595 -0.2665  1.0374 -1.1046
 2565SOL    HW2 7752   2.813   1.759   1.600 -0.4356  1.1468  0.8048
 2566SOL     OW 7753   0.429   1.828   0.327 -0.3937  0.5377 -0.4892
 2566SOL    HW1 7754   0.348   1.844   0.377  0.6336  2.4489  0.7224
 2566SOL    HW2 7755   0.405   1.844   0.236 -2.2279 -2.6503 -0.7167
 2567SOL     OW 7756   3.957   0.768   0.127 -0.3070  0.0620 -0.4444
 2567SOL    HW1 7757   4.002   0.722   0.198  0.0515 -0.1135 -0.7791
 2567SOL    HW2 7758   3.879   0.805   0.168 -1.1445 -1.6831 -0.3398
 2568SOL     OW 7759   1.727   4.619   2.630  0.6088  0.3057  0.1080
 2568SOL    HW1 7760   1.767   4.640   2.715 -1.5132  0.0196  1.2468
 2568SOL    HW2 7761   1.640   4.658   2.635  0.3420  0.0251 -1.8525
 2569SOL     OW 7762   1.312   0.939   4.548  0.0170 -0.4455  0.5365
 2569SOL    HW1 7763   1.378   0.985   4.598  1.1145 -0.6218 -0.6930
 2569SOL    HW2 7764   1.356   0.914   4.466 -0.7275 -2.9805  0.8071
 2570SOL     OW 7765   3.381   1.979   3.154 -0.2848 -0.0397 -0.5137
 2570SOL    HW1 7766   3.470   2.014   3.143  0.4188 -1.3499  0.6996
 2570SOL    HW2 7767   3.366   1.981   3.248 -0.9454 -1.2221 -0.5785
 2571SOL     OW 7768   0.881   3.065   2.606 -0.3457 -0.1745 -0.2157
 2571SOL    HW1 7769   0.912   3.105   2.525  0.0358 -0.3846 -0.1759
 2571SOL    HW2 7770   0.918   2.977   2.604 -0.5782 -0.2778  0.0468
 2572SOL     OW 7771   1.350   3.604   2.856  0.2742 -1.2133 -0.8089
 2572SOL    HW1 7772   1.336   3.578   2.765  2.5724 -1.4645 -1.1392
 2572SOL    HW2 7773   1.361   3.699   2.852  3.0605 -1.4646 -1.2731
 2573SOL     OW 7774   0.215   0.357   2.840 -0.4157  0.5563 -0.3466
 2573SOL    HW1 7775   0.215   0.369   2.745 -3.2601 -1.3127 -0.6941
 2573SOL    HW2 7776   0.306   0.335   2.861  0.1863  0.4802 -2.7113
 2574SOL     OW 7777   2.877   4.857   4.315 -0.3635 -0.4979  0.4785
 2574SOL    HW1 7778   2.811   4.897   4.372  0.9277  2.2415  0.2180
 2574SOL    HW2 7779   2.958   4.860   4.365  0.2329 -0.6836 -0.4490
 2575SOL     OW 7780   2.253   3.380   4.052 -0.1380 -0.2020  0.0955
 2575SOL    HW1 7781   2.261   3.324   3.975 -2.6564  0.3743 -0.6650
 2575SOL    HW2 7782   2.159   3.397   4.061  0.3939  3.5307  0.4879
 2576SOL     OW 7783   1.060   3.416   2.738 -0.2219 -0.3087 -0.7023
 2576SOL    HW1 7784   0.989   3.383   2.683 -1.5119  0.4352  0.4417
 2576SOL    HW2 7785   1.027   3.500   2.771  1.6288  0.5768 -0.9715
 2577SOL     OW 7786   3.376   2.897   4.058 -0.1375 -0.1965 -0.1497
 2577SOL    HW1 7787   3.336   2.878   4.143 -2.4632  0.8657 -0.9090
 2577SOL    HW2 7788   3.374   2.814   4.011 -2.7868  0.0542 -0.6153
 2578SOL     OW 7789   2.971   1.565   0.849  0.3762 -0.3084  0.4971
 2578SOL    HW1 7790   2.891   1.617   0.844 -0.1809 -1.0778  1.1041
 2578SOL    HW2 7791   2.965   1.503   0.776 -0.8468 -2.0468  1.9688
 2579SOL     OW 7792   3.310   0.084   4.095 -0.3610 -0.9536 -0.1512
 2579SOL    HW1 7793   3.367   0.007   4.089  2.2000  0.7731  0.1969
 2579SOL    HW2 7794   3.307   0.118   4.006  0.8990  0.0591  0.1553
 2580SOL     OW 7795   0.620   2.728   3.606 -0.1071  0.0304  0.1273
 2580SOL    HW1 7796   0.623   2.815   3.567  1.5652  0.5805  1.3511
 2580SOL    HW2 7797   0.712   2.706   3.622 -0.5995 -1.0790  1.6982
 2581SOL     OW 7798   3.574   2.091   2.154  0.3697 -0.4253  0.6070
 2581SOL    HW1 7799   3.558   1.997   2.144  0.9127 -0.3061 -1.9951
 2581SOL    HW2 7800   3.667   2.097   2.176  1.0460 -0.4730 -1.9284
 2582SOL     OW 7801   4.630   0.121   1.896  0.5746  0.9479 -0.1802
 2582SOL    HW1 7802   4.704   0.137   1.837 -0.0761  1.8883 -0.7776
 2582SOL    HW2 7803   4.562   0.084   1.839  0.4058  0.5785  0.2583
 2583SOL     OW 7804   0.213   2.600   0.079  0.2232  0.0377 -0.1854
 2583SOL    HW1 7805   0.202   2.681   0.128 -0.6326  0.6356 -1.2944
 2583SOL    HW2 7806   0.274   2.622   0.008  1.7732 -0.9183  0.7817
 2584SOL     OW 7807   3.261   4.522   2.833  0.2164  0.0257  0.0232
 2584SOL    HW1 7808   3.170   4.496   2.841  0.0396  0.4489 -0.5685
 2584SOL    HW2 7809   3.307   4.441   2.809 -0.4030  0.2720 -2.2729
 2585SOL     OW 7810   4.782   2.901   2.773 -0.0103 -0.1903  0.3316
 2585SOL    HW1 7811   4.698   2.933   2.806  1.1210  1.8856  1.3126
 2585SOL    HW2 7812   4.773   2.805   2.776 -2.0270 -0.0354  1.1758
 2586SOL     OW 7813   1.641   2.129   4.462 -0.1785 -0.5428  0.2277
 2586SOL    HW1 7814   1.726   2.127   4.507  0.2335 -0.4735 -0.5255
 2586SOL    HW2 7815   1.664   2.142   4.369 -1.0422  0.1821  0.1042
 2587SOL     OW 7816   3.302   2.332   1.836  0.3735 -0.0582 -0.1610
 2587SOL    HW1 7817   3.316   2.384   1.915 -0.7603 -0.9059  0.6198
 2587SOL    HW2 7818   3.357   2.255   1.848  1.1928  0.4030 -0.8123
 2588SOL     OW 7819   0.784   1.731   4.402  0.4118  0.1279  0.2110
 2588SOL    HW1 7820   0.769   1.718   4.495  0.9559 -0.1525  0.2624
 2588SOL    HW2 7821   0.812   1.823   4.395 -2.4269  1.0790 -0.0345
 2589SOL     OW 7822   2.978   2.043   4.461 -0.2170  0.7688  0.2554
 2589SOL    HW1 7823   3.073   2.050   4.467 -0.2407  0.2623  2.0001
 2589SOL    HW2 7824   2.946   2.077   4.545 -1.8096  3.7351 -1.4110
 2590SOL     OW 7825   0.911   1.444   4.832 -0.3258  0.0474  0.1448
 2590SOL    HW1 7826   0.967   1.521   4.822 -0.2007  0.0319  0.7006
 2590SOL    HW2 7827   0.970   1.374   4.860 -0.5589 -0.0696  0.3467
 2591SOL     OW 7828   1.598   1.410   3.143  0.3162  0.2133 -0.1629
 2591SOL    HW1 7829   1.546   1.330   3.151  1.3457 -0.4122  0.4829
 2591SOL    HW2 7830   1.646   1.416   3.226  1.6246  0.5222 -0.9118
 2592SOL     OW 7831   2.673   0.485   2.553 -0.1393 -0.3584  0.3347
 2592SOL    HW1 7832   2.748   0.430   2.530  0.3633  0.6867 -0.5939
 2592SOL    HW2 7833   2.711   0.572   2.569 -1.2184  0.3649 -0.8494
 2593SOL     OW 7834   0.462   2.241   2.445 -0.4204  0.1383 -0.1063
 2593SOL    HW1 7835   0.415   2.295   2.381 -1.2159  0.2011  0.5303
 2593SOL    HW2 7836   0.506   2.175   2.392  0.4015  1.2659 -0.8884
 2594SOL     OW 7837   4.000   4.030   1.803  0.2650  0.4691 -0.6910
 2594SOL    HW1 7838   4.003   3.934   1.804 -0.3360  0.4436  0.6195
 2594SOL    HW2 7839   3.909   4.051   1.782 -0.3729  0.6824  1.9748
 2595SOL     OW 7840   3.170   3.784   3.238  0.2682  0.1755  0.0038
 2595SOL    HW1 7841   3.108   3.856   3.224  1.3581  0.8512 -1.7208
 2595SOL    HW2 7842   3.254   3.819   3.207  1.4135 -0.9349  1.6546
 2596SOL     OW 7843   2.698   0.226   0.459  0.1847  0.3492  0.2142
 2596SOL    HW1 7844   2.676   0.317   0.440 -2.0375  0.1103  1.3624
 2596SOL    HW2 7845   2.749   0.230   0.540  1.4451  0.6455 -0.5640
 2597SOL     OW 7846   0.951   1.648   2.368  0.5858  0.3223 -0.1990
 2597SOL    HW1 7847   0.969   1.660   2.461 -2.4150  0.3851  0.4887
 2597SOL    HW2 7848   0.977   1.558   2.350  2.6676  0.7817  0.2271
 2598SOL     OW 7849   3.356   1.655   0.702  0.0420  0.6025 -0.3104
 2598SOL    HW1 7850   3.272   1.701   0.709  0.9360  2.3421 -0.7253
 2598SOL    HW2 7851   3.332   1.562   0.704 -1.9046  1.0600 -0.6051
 2599SOL     OW 7852   1.585   0.387   2.527  0.0902  0.6583  0.8801
 2599SOL    HW1 7853   1.538   0.378   2.445 -1.5207 -1.0517  1.9043
 2599SOL    HW2 7854   1.669   0.344   2.511 -0.2559  0.2274  0.1448
 2600SOL     OW 7855   0.413   4.650   1.612 -0.1058  0.2532 -0.2443
 2600SOL    HW1 7856   0.339   4.700   1.577  0.9331  1.8643 -0.2869
 2600SOL    HW2 7857   0.408   4.663   1.707  0.6070  1.1528 -0.3095
 2601SOL     OW 7858   3.337   4.603   1.032 -0.7019  0.1758  0.2154
 2601SOL    HW1 7859   3.319   4.572   0.944 -0.5706 -2.3529  0.9881
 2601SOL    HW2 7860   3.251   4.628   1.067 -0.9330 -0.0026 -0.2214
 2602SOL     OW 7861   0.607   1.755   1.035  0.2137 -0.0405 -0.2402
 2602SOL    HW1 7862   0.562   1.680   0.994 -0.5952  0.4601 -0.3005
 2602SOL    HW2 7863   0.700   1.739   1.019  0.2575 -2.2058  1.7345
 2603SOL     OW 7864   1.498   2.519   1.496 -0.0658 -0.2845 -0.0492
 2603SOL    HW1 7865   1.559   2.544   1.427  0.8778 -1.0609  0.4778
 2603SOL    HW2 7866   1.537   2.553   1.576 -0.9021  0.1862  0.1655
 2604SOL     OW 7867   0.251   3.225   0.430  0.0369 -0.1338 -0.3045
 2604SOL    HW1 7868   0.204   3.181   0.501  0.5161  1.3197  0.9745
 2604SOL    HW2 7869   0.323   3.166   0.409 -0.3161 -0.7481  0.1713
 2605SOL     OW 7870   1.630   2.207   4.898  0.2122  0.5544 -0.0555
 2605SOL    HW1 7871   1.637   2.297   4.929 -0.1296  0.9979 -1.2496
 2605SOL    HW2 7872   1.583   2.213   4.815 -1.7820 -0.9541  0.8944
 2606SOL     OW 7873   2.499   3.653   3.380  0.8313  0.0193  0.0923
 2606SOL    HW1 7874   2.405   3.671   3.372  1.1505  1.5747 -0.4452
 2606SOL    HW2 7875   2.518   3.598   3.304  0.4608  0.1913 -0.1313
 2607SOL     OW 7876   3.361   2.964   1.170 -0.1071  0.0256 -0.0022
 2607SOL    HW1 7877   3.425   3.022   1.211  0.5011 -1.2093  0.8439
 2607SOL    HW2 7878   3.412   2.889   1.140 -0.9678 -0.3802 -0.4797
 2608SOL     OW 7879   0.453   4.766   2.243  0.1638  0.0654  0.3114
 2608SOL    HW1 7880   0.529   4.712   2.266 -0.9691 -1.5774  0.3121
 2608SOL    HW2 7881   0.387   4.704   2.213 -1.9599  1.1872  2.3005
 2609SOL     OW 7882   3.510   2.144   1.279 -0.7454 -0.3605 -0.4502
 2609SOL    HW1 7883   3.513   2.156   1.184 -1.6923 -0.7360 -0.5350
 2609SOL    HW2 7884   3.513   2.233   1.313 -0.8464 -0.1970 -0.8530
 2610SOL     OW 7885   0.327   2.172   4.703  0.1284  0.0696  0.0337
 2610SOL    HW1 7886   0.386   2.246   4.694 -0.7697  1.0886  1.9126
 2610SOL    HW2 7887   0.270   2.177   4.626  0.2588  1.1791 -0.0073
 2611SOL     OW 7888   1.715   1.732   0.559  0.0720 -0.0955 -0.3314
 2611SOL    HW1 7889   1.671   1.647   0.551 -1.3646  0.4205  1.4089
 2611SOL    HW2 7890   1.716   1.750   0.653  1.0410  1.4823 -0.5992
 2612SOL     OW 7891   3.209   0.039   1.641 -0.0501 -0.6023 -0.2518
 2612SOL    HW1 7892   3.156  -0.038   1.664  0.3023 -1.3269 -1.7695
 2612SOL    HW2 7893   3.279   0.004   1.587 -1.2996  1.0696 -3.2050
 2613SOL     OW 7894   0.996   4.538   4.455  0.1370 -0.4501 -0.2542
 2613SOL    HW1 7895   1.029   4.625   4.475 -0.3541 -0.2908 -0.1320
 2613SOL    HW2 7896   1.059   4.479   4.497 -0.3204 -0.1343  0.9250
 2614SOL     OW 7897   1.124   4.131   2.167  0.2945 -0.0495  0.0201
 2614SOL    HW1 7898   1.036   4.155   2.196  0.1837  0.5750 -0.8146
 2614SOL    HW2 7899   1.154   4.206   2.116  1.6828  0.1530  1.0676
 2615SOL     OW 7900   2.053   0.059   0.168  0.5331  0.0683 -0.3054
 2615SOL    HW1 7901   2.067   0.138   0.117  1.8079 -0.6023 -1.0250
 2615SOL    HW2 7902   2.118  -0.003   0.136 -0.0101 -1.0670  0.6943
 2616SOL     OW 7903   2.285   4.417   2.822 -0.8172  0.0443  0.1777
 2616SOL    HW1 7904   2.308   4.325   2.812  0.0485  0.3710 -0.9790
 2616SOL    HW2 7905   2.335   4.445   2.899 -0.2377 -0.1724 -0.1186
 2617SOL     OW 7906   2.173   4.539   3.584 -0.6265 -0.6539 -0.1303
 2617SOL    HW1 7907   2.217   4.611   3.538 -0.6849  0.3348  1.2834
 2617SOL    HW2 7908   2.232   4.465   3.576  0.0866 -0.0650 -0.4287
 2618SOL     OW 7909   2.595   1.980   3.321  0.2022  0.0417  0.5488
 2618SOL    HW1 7910   2.594   2.076   3.330 -0.7527  0.0568  0.3449
 2618SOL    HW2 7911   2.686   1.959   3.299  0.0430  1.0774 -1.2772
 2619SOL     OW 7912   2.416   1.373   1.959  0.6502 -0.0395 -0.4052
 2619SOL    HW1 7913   2.407   1.370   2.054 -0.7265 -2.0731 -0.5392
 2619SOL    HW2 7914   2.493   1.319   1.941 -0.0545 -1.0182 -0.5230
 2620SOL     OW 7915   4.494   2.134   0.706 -0.0686  0.1254 -0.3663
 2620SOL    HW1 7916   4.417   2.183   0.734 -0.3926 -0.8692  0.5475
 2620SOL    HW2 7917   4.513   2.166   0.618 -1.8019  0.0669 -0.7878
 2621SOL     OW 7918   2.713   0.238   4.211  0.2004  0.1224  0.3769
 2621SOL    HW1 7919   2.783   0.214   4.150  0.0729 -0.6614  0.5353
 2621SOL    HW2 7920   2.719   0.173   4.281  0.0835  0.7668  1.0037
 2622SOL     OW 7921   4.812   2.440   1.190 -0.6900 -0.7412 -0.1208
 2622SOL    HW1 7922   4.839   2.501   1.259  0.9510  0.3573 -1.6425
 2622SOL    HW2 7923   4.826   2.353   1.228  0.7897 -0.1708  0.7207
 2623SOL     OW 7924   0.219   4.563   0.669 -0.1823  0.3100  0.6484
 2623SOL    HW1 7925   0.217   4.605   0.583 -0.3102 -1.7938 -0.4487
 2623SOL    HW2 7926   0.129   4.533   0.683  0.2407 -1.0256  0.6128
 2624SOL     OW 7927   2.077   2.240   4.565  0.6699  0.2602  0.1172
 2624SOL    HW1 7928   2.121   2.174   4.512 -1.7292 -0.2366 -1.3956
 2624SOL    HW2 7929   2.095   2.323   4.520  0.9878  0.2144  0.1584
 2625SOL     OW 7930   1.018   3.385   4.171  0.2519  0.3195 -0.3603
 2625SOL    HW1 7931   0.965   3.388   4.250  1.2550  1.9586  0.3022
 2625SOL    HW2 7932   0.969   3.329   4.111 -0.1738 -1.5863  1.6399
 2626SOL     OW 7933   0.955   2.046   3.915  0.4418  0.2292  0.4525
 2626SOL    HW1 7934   0.914   2.066   3.830  1.0290  1.5180  0.4457
 2626SOL    HW2 7935   1.022   1.982   3.894  2.2997  2.3488 -0.5640
 2627SOL     OW 7936   1.797   3.349   0.892 -0.2799  0.3366  0.1434
 2627SOL    HW1 7937   1.729   3.282   0.903  0.5994 -0.6141 -0.0319
 2627SOL    HW2 7938   1.750   3.427   0.861 -1.2185 -0.4512 -0.4705
 2628SOL     OW 7939   3.198   1.721   3.208  0.3214 -0.4349 -0.1415
 2628SOL    HW1 7940   3.184   1.772   3.128  0.2841 -0.0102  0.1378
 2628SOL    HW2 7941   3.128   1.656   3.207  0.8012 -0.9616 -0.8758
 2629SOL     OW 7942   4.788   4.141   0.168 -0.2410 -0.2865  0.2101
 2629SOL    HW1 7943   4.704   4.116   0.130  0.7285 -1.8919 -1.0631
 2629SOL    HW2 7944   4.838   4.177   0.095  0.8518 -1.2228  0.4573
 2630SOL     OW 7945   0.901   3.390   4.718 -0.0836  0.1709  0.5038
 2630SOL    HW1 7946   0.892   3.377   4.812  0.6272  2.7476  1.0132
 2630SOL    HW2 7947   0.845   3.466   4.700  0.6192  0.3697 -0.9584
 2631SOL     OW 7948   0.943   1.149   3.749 -0.5468  0.6166 -0.9145
 2631SOL    HW1 7949   0.875   1.211   3.723 -2.8882 -1.6539 -0.6005
 2631SOL    HW2 7950   0.902   1.063   3.739  1.6962 -0.7982  1.0266
 2632SOL     OW 7951   4.314   4.730   3.011 -0.3778 -0.2906 -0.2410
 2632SOL    HW1 7952   4.334   4.794   3.080  1.6097 -0.6818 -0.3737
 2632SOL    HW2 7953   4.318   4.645   3.055  0.0228 -0.4890 -0.6484
 2633SOL     OW 7954   0.350   3.180   2.921  0.0553 -0.3626 -0.1230
 2633SOL    HW1 7955   0.363   3.092   2.955  0.3516  0.3541  1.7349
 2633SOL    HW2 7956   0.352   3.170   2.826  0.9391 -2.2268  0.0561
 2634SOL     OW 7957   2.749   2.469   3.059 -0.0211  0.1871 -0.3111
 2634SOL    HW1 7958   2.691   2.509   3.124  0.2155  0.5182 -0.3036
 2634SOL    HW2 7959   2.753   2.376   3.084  0.7309  0.4614  0.6419
 2635SOL     OW 7960   4.183   2.475   1.481  0.2201 -0.3437  0.8260
 2635SOL    HW1 7961   4.277   2.457   1.486 -0.0291 -2.0193  0.2210
 2635SOL    HW2 7962   4.160   2.509   1.567  1.5923  1.3160  0.5857
 2636SOL     OW 7963   4.568   1.198   4.107  0.3438 -0.1509 -0.1655
 2636SOL    HW1 7964   4.513   1.255   4.161 -1.3669 -0.4795 -1.4718
 2636SOL    HW2 7965   4.573   1.116   4.156 -3.2409 -1.3307 -1.4271
 2637SOL     OW 7966   4.006   3.000   2.355  0.0556 -0.2820 -0.5023
 2637SOL    HW1 7967   4.007   2.920   2.302  0.5472 -1.7056  1.5062
 2637SOL    HW2 7968   3.915   3.010   2.382  0.3615 -1.6544  1.2391
 2638SOL     OW 7969   4.026   4.547   1.429 -0.6228  0.4733 -0.3771
 2638SOL    HW1 7970   4.018   4.554   1.334  0.9281 -1.6983 -0.7342
 2638SOL    HW2 7971   3.955   4.603   1.463 -0.5107  2.2181 -2.7392
 2639SOL     OW 7972   4.720   0.471   2.055 -0.0900  0.0068 -0.3213
 2639SOL    HW1 7973   4.780   0.402   2.026 -1.2797 -0.9740 -0.5507
 2639SOL    HW2 7974   4.659   0.481   1.982 -0.6249  0.4707  0.1862
 2640SOL     OW 7975   4.567   0.025   3.618  0.5551  0.0175 -0.6000
 2640SOL    HW1 7976   4.607   0.078   3.688 -0.9673  0.2025  0.1673
 2640SOL    HW2 7977   4.636  -0.035   3.592  1.9158  1.5079 -0.5885
 2641SOL     OW 7978   1.793   3.077   3.072 -0.4157 -0.0871 -0.8041
 2641SOL    HW1 7979   1.875   3.064   3.025 -0.5577  0.9576 -1.3829
 2641SOL    HW2 7980   1.725   3.048   3.011 -0.5706  0.7562 -1.0432
 2642SOL     OW 7981   4.889   1.923   0.454 -0.3227  0.1925 -0.6461
 2642SOL    HW1 7982   4.899   2.000   0.510 -1.2565  1.2980 -1.9498
 2642SOL    HW2 7983   4.808   1.883   0.483 -0.0774 -0.0487 -0.2805
 2643SOL     OW 7984   0.403   3.372   4.152 -0.5316  0.3848  0.3372
 2643SOL    HW1 7985   0.379   3.280   4.152  0.8967 -0.0266 -0.3513
 2643SOL    HW2 7986   0.497   3.373   4.173 -0.0133  1.4786 -1.7177
 2644SOL     OW 7987   3.728   4.693   3.317 -0.4151  0.2458  0.7421
 2644SOL    HW1 7988   3.703   4.780   3.348  0.2023  0.8535 -0.4154
 2644SOL    HW2 7989   3.656   4.665   3.261  0.1026  0.7169 -0.1809
 2645SOL     OW 7990   1.633   2.609   3.617  0.0585 -0.0436  0.2278
 2645SOL    HW1 7991   1.663   2.642   3.702  3.0343  2.6434 -1.6433
 2645SOL    HW2 7992   1.628   2.687   3.561  0.0869 -1.9190 -2.6025
 2646SOL     OW 7993   0.089   3.658   1.337  0.0178 -0.4253 -0.1473
 2646SOL    HW1 7994   0.003   3.649   1.295 -0.2568 -0.7206  0.4579
 2646SOL    HW2 7995   0.152   3.651   1.265 -0.5043  2.1911 -0.9581
 2647SOL     OW 7996   4.480   1.772   3.297  0.1399  0.1539  0.2522
 2647SOL    HW1 7997   4.457   1.694   3.246 -0.7328 -0.5178  1.6213
 2647SOL    HW2 7998   4.541   1.741   3.363  1.3496  1.0382 -0.4120
 2648SOL     OW 7999   3.115   4.215   1.201 -0.6245  0.4309  0.0139
 2648SOL    HW1 8000   3.163   4.191   1.121 -2.4382  1.7286 -1.5694
 2648SOL    HW2 8001   3.046   4.150   1.207  0.2027 -0.3651  1.2561
 2649SOL     OW 8002   1.086   0.520   4.129  0.6664 -0.4091  0.1255
 2649SOL    HW1 8003   1.177   0.547   4.144  1.0852 -2.3371  1.3266
 2649SOL    HW2 8004   1.083   0.495   4.036  1.1850  0.2032 -0.0667
 2650SOL     OW 8005   3.110   1.639   2.096 -0.2993  0.5727  1.0244
 2650SOL    HW1 8006   3.180   1.697   2.126 -1.2350  1.9383  0.6634
 2650SOL    HW2 8007   3.085   1.674   2.010 -1.7881  0.4629  1.3842
 2651SOL     OW 8008   0.708   3.075   3.692  0.0331 -0.3082 -0.0292
 2651SOL    HW1 8009   0.712   3.166   3.721  1.0148  0.1197 -1.3741
 2651SOL    HW2 8010   0.686   3.081   3.599  1.6442 -1.3456 -0.5160
 2652SOL     OW 8011   0.257   3.873   2.028  0.3041 -0.7067  0.2950
 2652SOL    HW1 8012   0.265   3.969   2.034  0.0074 -0.6893  0.3971
 2652SOL    HW2 8013   0.167   3.858   1.999  1.4542 -0.7866 -3.9004
 2653SOL     OW 8014   2.357   0.614   0.050 -0.7625 -0.2411 -0.4319
 2653SOL    HW1 8015   2.278   0.669   0.046 -0.4570  0.3279  0.7564
 2653SOL    HW2 8016   2.427   0.671   0.017 -0.2178  0.6223  1.9196
 2654SOL     OW 8017   4.818   0.454   4.321  0.0585 -0.2097 -0.2483
 2654SOL    HW1 8018   4.855   0.498   4.398 -1.3108  2.1226 -0.8253
 2654SOL    HW2 8019   4.876   0.479   4.249 -0.5225  0.3924 -0.5174
 2655SOL     OW 8020   0.302   0.141   1.701 -0.2192 -0.4789 -0.1672
 2655SOL    HW1 8021   0.239   0.082   1.659 -0.8206  1.8935 -2.9005
 2655SOL    HW2 8022   0.371   0.153   1.636  0.3034  1.1610  0.6379
 2656SOL     OW 8023   4.814   1.100   3.133 -0.0464 -0.1889  0.3093
 2656SOL    HW1 8024   4.838   1.012   3.104 -0.1551 -0.3993  0.8501
 2656SOL    HW2 8025   4.848   1.158   3.065  1.0586 -0.5618  0.5321
 2657SOL     OW 8026   0.919   3.487   1.640  0.0207 -0.6366  0.4691
 2657SOL    HW1 8027   0.858   3.412   1.641  1.2440 -1.6935 -0.4603
 2657SOL    HW2 8028   0.998   3.452   1.599  0.0558  1.6369 -1.6028
 2658SOL     OW 8029   3.282   0.239   3.840  0.3188 -0.0821 -0.4056
 2658SOL    HW1 8030   3.228   0.318   3.838  1.4321  0.6985 -0.3950
 2658SOL    HW2 8031   3.358   0.261   3.786  1.4538 -0.5489  0.9726
 2659SOL     OW 8032   0.549   4.202   1.256 -0.0541 -0.2190 -0.2065
 2659SOL    HW1 8033   0.479   4.217   1.320 -0.9634  0.1259 -1.2575
 2659SOL    HW2 8034   0.623   4.253   1.289 -1.1192  1.5444 -0.4352
 2660SOL     OW 8035   2.595   2.274   2.393  0.1069  0.4000 -0.4922
 2660SOL    HW1 8036   2.539   2.314   2.326 -0.1091  0.0777 -0.5081
 2660SOL    HW2 8037   2.591   2.180   2.374 -0.9725  0.1623  0.7265
 2661SOL     OW 8038   3.230   0.913   1.494 -0.5861 -0.0013  0.6177
 2661SOL    HW1 8039   3.267   0.940   1.578  0.9781 -1.5410  0.4824
 2661SOL    HW2 8040   3.205   0.995   1.452  2.0115  1.1435  1.0680
 2662SOL     OW 8041   4.026   1.140   4.113 -0.0253 -0.3637  0.1408
 2662SOL    HW1 8042   3.998   1.185   4.033  1.4509 -0.3037 -0.3641
 2662SOL    HW2 8043   3.949   1.143   4.170 -0.6455  0.8725 -0.7217
 2663SOL     OW 8044   4.960   0.073   1.965 -0.4812  0.6172  0.3792
 2663SOL    HW1 8045   4.928   0.088   2.054  0.5591 -0.8820  1.0412
 2663SOL    HW2 8046   5.014  -0.005   1.972 -0.5262  0.3642 -1.6214
 2664SOL     OW 8047   3.204   0.931   4.792 -0.1334  0.0189 -0.2354
 2664SOL    HW1 8048   3.252   0.948   4.872  0.5720  0.3097 -0.7139
 2664SOL    HW2 8049   3.114   0.914   4.821  0.5935 -2.3729  0.8300
 2665SOL     OW 8050   4.010   4.117   1.118  0.2274 -0.1058  0.0758
 2665SOL    HW1 8051   3.922   4.112   1.079  0.1825 -1.3349  0.3195
 2665SOL    HW2 8052   4.005   4.063   1.196  1.4246 -0.8366 -0.3317
 2666SOL     OW 8053   1.815   0.328   0.554 -0.3343 -0.0779 -0.4053
 2666SOL    HW1 8054   1.738   0.384   0.549 -1.7199 -1.7273  0.7813
 2666SOL    HW2 8055   1.836   0.306   0.464 -2.7116 -1.3824 -0.7090
 2667SOL     OW 8056   3.472   2.937   4.907  0.1506  0.5821 -0.0846
 2667SOL    HW1 8057   3.561   2.935   4.871 -0.3407 -0.3065 -1.3167
 2667SOL    HW2 8058   3.454   3.030   4.921  0.7919  0.8864 -1.1266
 2668SOL     OW 8059   1.580   0.076   4.402 -0.1547  0.0799  0.1862
 2668SOL    HW1 8060   1.595   0.083   4.308  2.2527  0.0827  0.5178
 2668SOL    HW2 8061   1.487   0.095   4.413 -0.3016  0.9236 -2.0926
 2669SOL     OW 8062   0.487   1.813   2.194 -0.4720  0.4913 -0.2116
 2669SOL    HW1 8063   0.398   1.783   2.213 -1.0974  1.6279 -1.1988
 2669SOL    HW2 8064   0.490   1.819   2.098  0.7416  0.2623 -0.1967
 2670SOL     OW 8065   1.852   0.479   2.511  0.5491 -0.1696 -0.1674
 2670SOL    HW1 8066   1.916   0.546   2.487  0.1659 -0.3789 -1.8756
 2670SOL    HW2 8067   1.893   0.432   2.584  0.8369  1.8649  1.0689
 2671SOL     OW 8068   2.848   0.098   1.741  0.3250  0.5104 -0.4976
 2671SOL    HW1 8069   2.775   0.157   1.724 -0.8974 -0.7542  0.0996
 2671SOL    HW2 8070   2.855   0.096   1.837  0.8485  0.2967 -0.5402
 2672SOL     OW 8071   2.899   1.237   2.389  0.0111  0.2916 -0.0153
 2672SOL    HW1 8072   2.834   1.228   2.458 -1.4038  0.3650 -1.2829
 2672SOL    HW2 8073   2.926   1.328   2.393 -0.9947  0.6180 -0.3404
 2673SOL     OW 8074   1.790   3.178   0.391  0.1631  0.2298 -0.0410
 2673SOL    HW1 8075   1.748   3.262   0.371  0.9689  0.5233 -0.5589
 2673SOL    HW2 8076   1.884   3.198   0.391  0.3585 -0.6629 -0.1461
 2674SOL     OW 8077   3.271   2.148   4.451 -0.3451  0.0568  0.4391
 2674SOL    HW1 8078   3.314   2.191   4.525  2.5682 -2.6904  0.5766
 2674SOL    HW2 8079   3.305   2.058   4.453 -2.2312 -0.8742 -2.6865
 2675SOL     OW 8080   2.300   0.783   2.194  0.1652  0.2703  0.3145
 2675SOL    HW1 8081   2.291   0.868   2.151  0.8449  1.2181  1.9473
 2675SOL    HW2 8082   2.210   0.759   2.219 -0.2019 -0.1859 -1.3488
 2676SOL     OW 8083   0.190   0.065   2.219  0.0805 -0.2227  0.0155
 2676SOL    HW1 8084   0.280   0.042   2.195  0.4344  0.1717  0.9340
 2676SOL    HW2 8085   0.136   0.009   2.163  0.8777  0.0283 -1.0387
 2677SOL     OW 8086   1.250   0.414   0.825 -0.0667 -0.5142  0.1134
 2677SOL    HW1 8087   1.227   0.370   0.743 -0.6169 -0.2733  0.1331
 2677SOL    HW2 8088   1.167   0.421   0.872  0.1522 -0.1487  0.4503
 2678SOL     OW 8089   4.607   1.429   0.742  0.2400  0.3947 -0.1764
 2678SOL    HW1 8090   4.550   1.402   0.814  1.0973  1.4021  0.9308
 2678SOL    HW2 8091   4.664   1.353   0.727  0.6357  0.4663  0.8345
 2679SOL     OW 8092   2.509   2.009   3.937  0.3716  0.1985 -0.0371
 2679SOL    HW1 8093   2.512   1.927   3.987 -0.0207  0.4989  0.4960
 2679SOL    HW2 8094   2.562   1.992   3.859 -1.0870 -1.1282 -0.7869
 2680SOL     OW 8095   2.565   3.106   1.914  0.4175 -0.2901 -0.3228
 2680SOL    HW1 8096   2.470   3.100   1.901  0.2808  0.8093  0.1307
 2680SOL    HW2 8097   2.601   3.047   1.848 -0.5673 -0.4324 -0.7534
 2681SOL     OW 8098   2.895   4.503   0.834 -0.0168 -0.6528  0.0992
 2681SOL    HW1 8099   2.914   4.463   0.749  0.2994 -0.4736  0.0842
 2681SOL    HW2 8100   2.860   4.430   0.886 -0.9946 -0.5775 -0.4308
 2682SOL     OW 8101   1.540   3.838   1.531  0.0620 -0.2965 -0.6914
 2682SOL    HW1 8102   1.587   3.775   1.585  1.6741  1.8062  0.5124
 2682SOL    HW2 8103   1.587   3.839   1.448 -0.1802 -0.9062 -0.8391
 2683SOL     OW 8104   4.487   4.642   1.578 -0.3748 -0.0061  0.4508
 2683SOL    HW1 8105   4.534   4.580   1.634  0.6400 -0.3078 -0.6990
 2683SOL    HW2 8106   4.403   4.600   1.562  0.2873 -1.0813 -0.2797
 2684SOL     OW 8107   2.657   1.255   1.859  0.1983  0.0611  0.3914
 2684SOL    HW1 8108   2.717   1.305   1.803 -0.3462  1.2193  0.8183
 2684SOL    HW2 8109   2.693   1.264   1.947 -0.9534  1.3264  0.7486
 2685SOL     OW 8110   0.588   2.795   2.679 -0.2226 -0.1824 -0.3009
 2685SOL    HW1 8111   0.655   2.737   2.643 -1.7216 -1.6810 -0.8567
 2685SOL    HW2 8112   0.630   2.880   2.686  1.8605 -1.1652 -0.1517
 2686SOL     OW 8113   0.484   3.328   4.467  0.1696 -0.1891  0.2117
 2686SOL    HW1 8114   0.544   3.301   4.397  2.3444  3.9141  0.1846
 2686SOL    HW2 8115   0.523   3.293   4.547 -0.0848 -1.4859 -0.2045
 2687SOL     OW 8116   2.593   0.219   1.746 -0.2764 -0.2198 -0.3127
 2687SOL    HW1 8117   2.517   0.232   1.802 -0.1907 -0.7275 -0.0655
 2687SOL    HW2 8118   2.568   0.256   1.661 -0.0293  1.4910  0.3236
 2688SOL     OW 8119   2.132   1.570   3.243 -0.3488 -0.0304  0.4529
 2688SOL    HW1 8120   2.108   1.663   3.240 -0.2947 -0.0233  0.1103
 2688SOL    HW2 8121   2.088   1.536   3.320 -1.1305  0.0736  0.0575
 2689SOL     OW 8122   3.612   3.931   0.688 -0.4317 -0.6476  0.3307
 2689SOL    HW1 8123   3.684   3.901   0.743  0.1933 -0.2158 -0.2334
 2689SOL    HW2 8124   3.638   3.906   0.599 -0.8812 -0.2987  0.0972
 2690SOL     OW 8125   3.536   1.596   2.503 -1.0008  0.2120  0.0878
 2690SOL    HW1 8126   3.578   1.680   2.521  0.9941 -0.9845  1.3599
 2690SOL    HW2 8127   3.551   1.544   2.582  0.1073 -2.2031 -1.5815
 2691SOL     OW 8128   3.820   3.716   0.652 -0.0737 -0.3363 -0.2261
 2691SOL    HW1 8129   3.740   3.706   0.600 -0.9018 -1.5653  1.1985
 2691SOL    HW2 8130   3.821   3.639   0.709  1.7639  0.0266  0.2810
 2692SOL     OW 8131   3.341   1.920   0.868 -0.6210  0.1416  0.9395
 2692SOL    HW1 8132   3.267   1.873   0.830 -0.4362  0.0941  0.6342
 2692SOL    HW2 8133   3.304   1.966   0.944 -1.5900  2.3933 -0.7851
 2693SOL     OW 8134   1.550   0.162   2.726 -0.5866 -0.3420  0.5079
 2693SOL    HW1 8135   1.544   0.250   2.687 -0.7889 -0.3103  0.6080
 2693SOL    HW2 8136   1.629   0.124   2.687 -0.7115 -0.2609  0.1711
 2694SOL     OW 8137   4.827   3.075   0.062 -0.2143  0.4234  0.3823
 2694SOL    HW1 8138   4.905   3.078   0.118  0.4990  1.1392 -0.6291
 2694SOL    HW2 8139   4.838   3.147   0.001 -0.7042 -0.6748 -1.0550
 2695SOL     OW 8140   0.700   3.297   1.482 -0.3547  0.0997 -0.4769
 2695SOL    HW1 8141   0.604   3.294   1.484 -0.3430  0.0779  0.6013
 2695SOL    HW2 8142   0.727   3.276   1.572  0.5485  3.1267  0.0904
 2696SOL     OW 8143   0.858   1.966   0.778 -0.1995 -0.0167  0.1231
 2696SOL    HW1 8144   0.772   1.929   0.796 -0.9369  0.5968 -1.9625
 2696SOL    HW2 8145   0.846   2.060   0.788  0.3867  0.0345  0.3847
 2697SOL     OW 8146   4.553   1.454   1.425  0.2152  0.0780  0.4870
 2697SOL    HW1 8147   4.593   1.424   1.507 -0.3671 -1.1934  0.3359
 2697SOL    HW2 8148   4.475   1.502   1.453  0.1523 -0.1399  0.6898
 2698SOL     OW 8149   0.698   4.033   2.432 -0.1858 -0.5162 -0.6260
 2698SOL    HW1 8150   0.711   4.000   2.522 -1.9287  0.6918  0.1200
 2698SOL    HW2 8151   0.646   3.965   2.389 -0.1328 -0.6793 -0.4333
 2699SOL     OW 8152   2.575   0.955   2.651 -0.3197  0.6804  0.3045
 2699SOL    HW1 8153   2.485   0.969   2.680 -0.1736  1.6573  0.3414
 2699SOL    HW2 8154   2.602   0.874   2.693 -1.0649  0.5684  0.5779
 2700SOL     OW 8155   4.456   1.909   1.911  0.4213 -0.1204 -0.1996
 2700SOL    HW1 8156   4.506   1.828   1.924 -0.3527 -0.6824 -0.6225
 2700SOL    HW2 8157   4.476   1.934   1.821  0.7752  0.2561 -0.0229
 2701SOL     OW 8158   2.737   1.314   0.277 -0.4022 -0.3779 -0.0012
 2701SOL    HW1 8159   2.824   1.340   0.246 -0.5620 -0.9703 -0.9654
 2701SOL    HW2 8160   2.752   1.286   0.367  0.4959 -0.9221 -0.3044
 2702SOL     OW 8161   2.082   0.418   4.455  0.0693  0.1408 -0.3071
 2702SOL    HW1 8162   1.992   0.447   4.466  0.2199  1.0707 -1.2403
 2702SOL    HW2 8163   2.129   0.498   4.428  1.0195 -0.4764 -0.5313
 2703SOL     OW 8164   4.539   4.375   4.075  0.2826 -0.2525 -0.5885
 2703SOL    HW1 8165   4.528   4.340   4.163 -0.7344 -0.1062 -0.6440
 2703SOL    HW2 8166   4.634   4.382   4.063  0.4418 -0.9167  0.2310
 2704SOL     OW 8167   1.813   0.282   1.160  0.0995 -1.1462  0.1942
 2704SOL    HW1 8168   1.792   0.188   1.161  1.5711 -1.5100  1.2583
 2704SOL    HW2 8169   1.908   0.285   1.168  0.1390  0.4482 -0.5684
 2705SOL     OW 8170   2.538   1.251   1.526  0.3510 -0.6391  0.1856
 2705SOL    HW1 8171   2.451   1.212   1.528 -0.4764  1.1367  0.4652
 2705SOL    HW2 8172   2.587   1.204   1.593  0.2183 -2.8857 -1.1739
 2706SOL     OW 8173   1.394   1.213   4.345  1.0375  0.5320  0.2575
 2706SOL    HW1 8174   1.449   1.273   4.294  2.7017 -1.3106 -0.2184
 2706SOL    HW2 8175   1.422   1.224   4.435  0.9500  0.8622  0.2444
 2707SOL     OW 8176   0.142   2.176   4.496 -0.3972 -0.4690  0.4726
 2707SOL    HW1 8177   0.166   2.205   4.408 -3.1668 -1.6753 -0.8062
 2707SOL    HW2 8178   0.089   2.248   4.530 -1.5954 -1.1180  0.0230
 2708SOL     OW 8179   1.379   4.467   4.393 -0.1455 -0.3635 -0.0396
 2708SOL    HW1 8180   1.406   4.553   4.426  0.1525 -0.5500  0.2114
 2708SOL    HW2 8181   1.297   4.448   4.438 -0.0789 -0.3256  0.0969
 2709SOL     OW 8182   1.586   3.486   4.684 -0.1791 -0.2481 -0.3291
 2709SOL    HW1 8183   1.598   3.566   4.736 -0.1486  0.6020 -1.6026
 2709SOL    HW2 8184   1.524   3.434   4.735  2.2440 -0.9479  2.2055
 2710SOL     OW 8185   2.753   3.200   1.250 -0.5536 -0.3346  0.3284
 2710SOL    HW1 8186   2.796   3.275   1.291 -1.4265  0.3775 -0.0353
 2710SOL    HW2 8187   2.813   3.127   1.265  1.1202  0.7526 -0.7605
 2711SOL     OW 8188   0.232   4.052   3.418 -0.2228  0.8960 -0.5587
 2711SOL    HW1 8189   0.210   4.078   3.329  0.2455  0.3733 -0.8295
 2711SOL    HW2 8190   0.249   3.958   3.413  0.6486  1.0158 -0.0901
 2712SOL     OW 8191   2.587   4.110   3.251  0.3109  0.5616 -0.2346
 2712SOL    HW1 8192   2.589   4.171   3.325  0.1605  0.0241  0.2233
 2712SOL    HW2 8193   2.578   4.024   3.292  0.1581  0.2637 -0.8870
 2713SOL     OW 8194   0.241   4.480   4.627  0.3352 -0.7548 -0.2802
 2713SOL    HW1 8195   0.182   4.555   4.630  0.3122 -0.7919  0.3100
 2713SOL    HW2 8196   0.318   4.512   4.579 -0.0067 -0.5989 -0.7281
 2714SOL     OW 8197   0.650   1.627   3.424 -0.9293 -0.0374 -0.0073
 2714SOL    HW1 8198   0.555   1.624   3.418 -0.9384  1.3187 -0.9593
 2714SOL    HW2 8199   0.673   1.718   3.404  0.5823 -0.3915 -0.0366
 2715SOL     OW 8200   3.382   0.123   0.774  0.4608  0.1111  0.5261
 2715SOL    HW1 8201   3.335   0.187   0.827 -0.5077 -0.8139  0.8222
 2715SOL    HW2 8202   3.313   0.068   0.736  1.2740 -0.9371  0.5101
 2716SOL     OW 8203   2.557   0.256   1.072  0.8471  0.6138  0.3056
 2716SOL    HW1 8204   2.608   0.222   0.998 -0.8904  0.2415 -0.7815
 2716SOL    HW2 8205   2.549   0.350   1.054 -0.8065  0.2922 -0.8091
 2717SOL     OW 8206   1.716   4.107  -0.011  0.5549 -0.0393 -0.1330
 2717SOL    HW1 8207   1.640   4.070  -0.056  1.0553 -1.0323 -0.1880
 2717SOL    HW2 8208   1.694   4.102   0.082  0.4683 -0.1282 -0.1590
 2718SOL     OW 8209   4.182   3.134   4.696 -0.1949  0.0986  0.0904
 2718SOL    HW1 8210   4.261   3.172   4.734 -1.4749  0.7621  2.2701
 2718SOL    HW2 8211   4.145   3.203   4.641  1.0326 -0.4449 -1.4832
 2719SOL     OW 8212   1.594   1.380   2.489 -0.0400  0.4090  0.1940
 2719SOL    HW1 8213   1.514   1.353   2.535  0.1541  0.4181  0.5363
 2719SOL    HW2 8214   1.630   1.451   2.542  0.8859 -0.4545  0.7541
 2720SOL     OW 8215   2.243   2.370   4.190  0.3544  0.9191  1.0123
 2720SOL    HW1 8216   2.321   2.347   4.140  0.0709  2.1310 -0.0441
 2720SOL    HW2 8217   2.189   2.291   4.187  0.0698  1.1132 -1.2081
 2721SOL     OW 8218   2.014   1.546   1.248  0.2033  0.3490  0.3568
 2721SOL    HW1 8219   1.974   1.506   1.324 -1.1971  1.1026  0.0473
 2721SOL    HW2 8220   2.020   1.475   1.184  0.4592 -0.0439  0.8088
 2722SOL     OW 8221   4.706   1.306   0.454  0.4483 -0.7459  0.1256
 2722SOL    HW1 8222   4.789   1.269   0.424  0.5538 -0.0334 -0.4983
 2722SOL    HW2 8223   4.716   1.400   0.442 -0.0594 -0.5615  1.0596
 2723SOL     OW 8224   4.180   0.807   2.647  0.0042 -0.0388  0.0346
 2723SOL    HW1 8225   4.116   0.782   2.580  0.0335 -2.0290  0.6873
 2723SOL    HW2 8226   4.175   0.738   2.712  1.5028  0.7428  1.0366
 2724SOL     OW 8227   1.308   4.297   4.141  0.0618 -0.3421  0.2717
 2724SOL    HW1 8228   1.355   4.349   4.206 -1.6142  0.3660  0.9820
 2724SOL    HW2 8229   1.279   4.219   4.190 -1.8746  0.5568  0.6499
 2725SOL     OW 8230   2.602   4.935   1.400 -0.4144  0.1733 -0.0133
 2725SOL    HW1 8231   2.535   4.920   1.333  0.6819 -1.2110 -0.8677
 2725SOL    HW2 8232   2.660   5.000   1.361 -1.1666  1.2910  0.6819
 2726SOL     OW 8233   2.788   0.051   3.937  0.0930 -0.0659  0.4399
 2726SOL    HW1 8234   2.805  -0.004   3.860 -1.7308  0.8807 -0.7078
 2726SOL    HW2 8235   2.696   0.037   3.957  0.1720  0.8286  1.5626
 2727SOL     OW 8236   1.718   1.809   3.121 -0.4367 -0.2630  0.2277
 2727SOL    HW1 8237   1.763   1.741   3.171 -2.3937 -1.0195  1.0207
 2727SOL    HW2 8238   1.683   1.869   3.187  1.0145  1.4289 -0.4483
 2728SOL     OW 8239   2.317   1.979   4.217  0.1341 -0.2067 -0.0969
 2728SOL    HW1 8240   2.278   1.975   4.129  1.4729  0.3445 -0.7519
 2728SOL    HW2 8241   2.401   1.934   4.207  0.9535  1.1352  0.5171
 2729SOL     OW 8242   3.419   3.953   0.870 -0.8014  0.3639 -0.1633
 2729SOL    HW1 8243   3.501   3.963   0.822 -2.2315 -0.4897 -2.9961
 2729SOL    HW2 8244   3.419   4.027   0.931  1.7350  0.7717 -0.5111
 2730SOL     OW 8245   3.889   3.580   4.614 -0.2025 -0.4276 -0.3967
 2730SOL    HW1 8246   3.898   3.500   4.562  1.3066  0.1689 -1.1413
 2730SOL    HW2 8247   3.979   3.609   4.628 -0.4713 -0.9839  3.3345
 2731SOL     OW 8248   0.439   2.847   4.075  0.1077 -0.0748  0.8377
 2731SOL    HW1 8249   0.515   2.793   4.091 -1.8434 -2.9597  1.0783
 2731SOL    HW2 8250   0.422   2.837   3.981  0.2639  0.9405  0.6896
 2732SOL     OW 8251   3.640   0.795   3.436  0.1069  0.0226  0.1698
 2732SOL    HW1 8252   3.616   0.888   3.435 -1.1133 -0.2784  0.4297
 2732SOL    HW2 8253   3.723   0.793   3.483 -0.1610  0.9118  0.7105
 2733SOL     OW 8254   3.963   1.151   1.917 -0.2645 -0.1285  0.1587
 2733SOL    HW1 8255   3.898   1.202   1.965  0.5230 -1.9309  3.5326
 2733SOL    HW2 8256   4.047   1.189   1.944  0.2428 -1.8754  1.2156
 2734SOL     OW 8257   3.164   1.917   3.572 -0.1996 -0.6592 -0.6633
 2734SOL    HW1 8258   3.149   1.976   3.646 -1.6228 -2.4806  0.6093
 2734SOL    HW2 8259   3.075   1.894   3.542  0.2984 -2.2386 -1.0128
 2735SOL     OW 8260   0.540   0.091   0.952 -0.0172 -0.6143 -0.0679
 2735SOL    HW1 8261   0.605   0.053   0.893  1.2669 -0.7066  1.3339
 2735SOL    HW2 8262   0.460   0.042   0.935  0.5334 -1.1668 -1.1467
 2736SOL     OW 8263   4.396   1.637   4.586 -0.1357 -0.2093 -0.1555
 2736SOL    HW1 8264   4.412   1.730   4.603  2.5234 -0.9590  2.3266
 2736SOL    HW2 8265   4.380   1.632   4.492  2.5888  2.4935 -0.9310
 2737SOL     OW 8266   4.514   0.782   0.484  0.0452 -0.3987 -0.0419
 2737SOL    HW1 8267   4.445   0.784   0.419  0.3665  1.4736 -0.3775
 2737SOL    HW2 8268   4.540   0.873   0.495  3.2334 -1.0630 -0.7845
 2738SOL     OW 8269   2.787   4.111   2.839 -0.3180 -0.7465  0.1101
 2738SOL    HW1 8270   2.818   4.115   2.748 -0.3767 -0.0394  0.1175
 2738SOL    HW2 8271   2.821   4.028   2.872 -0.9016 -1.3504 -0.7773
 2739SOL     OW 8272   2.625   4.708   1.051  0.6620 -0.4720  0.0901
 2739SOL    HW1 8273   2.692   4.746   0.993 -1.4637  2.7760 -0.4863
 2739SOL    HW2 8274   2.550   4.692   0.993  0.5740 -3.4047  0.8501
 2740SOL     OW 8275   0.225   1.750   0.955  0.0644 -0.2186  0.1020
 2740SOL    HW1 8276   0.247   1.668   0.910  0.1456 -0.1197 -0.0395
 2740SOL    HW2 8277   0.224   1.727   1.048 -0.9039 -0.6181  0.0133
 2741SOL     OW 8278   1.654   3.934   2.922  0.0137  0.1353  0.1888
 2741SOL    HW1 8279   1.702   3.858   2.955 -1.1826 -0.1121  1.4694
 2741SOL    HW2 8280   1.669   4.002   2.988  2.2935  1.5703 -1.6594
 2742SOL     OW 8281   0.068   4.905   0.810 -0.0483  0.2950 -0.5272
 2742SOL    HW1 8282  -0.009   4.957   0.834 -0.6752 -0.5744 -0.6052
 2742SOL    HW2 8283   0.034   4.839   0.750  0.8109  0.0449 -0.7499
 2743SOL     OW 8284   2.489   0.866   4.850  0.5650  0.1933  0.0289
 2743SOL    HW1 8285   2.571   0.883   4.896 -0.4300 -2.5312  3.1716
 2743SOL    HW2 8286   2.505   0.786   4.800 -0.6091 -1.7072  2.4533
 2744SOL     OW 8287   4.943   3.273   1.960  0.4584 -0.5056  0.2175
 2744SOL    HW1 8288   4.849   3.274   1.940 -0.1157 -2.4049  2.3766
 2744SOL    HW2 8289   4.986   3.281   1.875 -1.6356  0.5550 -0.8127
 2745SOL     OW 8290   1.749   3.793   1.356 -0.3942  0.2608  0.4477
 2745SOL    HW1 8291   1.747   3.708   1.400  1.1036 -0.5700 -0.9786
 2745SOL    HW2 8292   1.764   3.773   1.264 -0.2574  2.0676  0.0290
 2746SOL     OW 8293   0.007   3.784   1.603  0.2325  0.0787  0.0613
 2746SOL    HW1 8294   0.042   3.708   1.557  0.5620 -0.5912  1.3690
 2746SOL    HW2 8295   0.071   3.853   1.586 -0.3009  0.2245 -1.5113
 2747SOL     OW 8296   2.168   2.838   4.597  0.5944  0.9160 -0.1175
 2747SOL    HW1 8297   2.259   2.811   4.584 -0.2229 -1.9976 -0.5495
 2747SOL    HW2 8298   2.127   2.825   4.511 -0.5044  0.8918  0.3952
 2748SOL     OW 8299   3.348   0.977   3.969 -1.2901  0.0208 -0.1710
 2748SOL    HW1 8300   3.432   0.995   3.925 -1.9698  0.8313 -1.1756
 2748SOL    HW2 8301   3.325   0.888   3.941 -0.3176 -0.5843  0.8755
 2749SOL     OW 8302   4.431   1.261   1.779 -0.1536  0.0064 -0.2113
 2749SOL    HW1 8303   4.387   1.212   1.710 -0.0975 -1.2556  0.6323
 2749SOL    HW2 8304   4.411   1.213   1.859  0.1324  1.2150  0.6077
 2750SOL     OW 8305   0.081   3.552   3.993 -0.2198 -0.4891  0.8966
 2750SOL    HW1 8306   0.078   3.461   4.020 -1.5887 -0.4664  0.8707
 2750SOL    HW2 8307   0.049   3.551   3.903  1.0783 -0.1371  0.4033
 2751SOL     OW 8308   0.618   0.994   2.485 -0.2154 -0.4432 -0.6020
 2751SOL    HW1 8309   0.596   1.087   2.478 -0.2608 -0.1425  2.2561
 2751SOL    HW2 8310   0.711   0.990   2.463 -0.3352  0.1688 -1.2798
 2752SOL     OW 8311   1.383   1.253   0.233  0.2521 -0.0235  0.1789
 2752SOL    HW1 8312   1.325   1.242   0.309  0.5704 -1.0525  0.2847
 2752SOL    HW2 8313   1.369   1.344   0.205  1.2028  0.8610  2.3531
 2753SOL     OW 8314   0.344   2.711   3.112  0.2721 -0.0451  0.9564
 2753SOL    HW1 8315   0.368   2.627   3.074 -0.9932 -0.3992  0.9046
 2753SOL    HW2 8316   0.254   2.700   3.140 -0.3432  1.6740 -0.1706
 2754SOL     OW 8317   0.952   2.615   0.932  0.1388 -0.2351 -0.1989
 2754SOL    HW1 8318   0.987   2.618   0.842  0.4646  0.4750 -0.0583
 2754SOL    HW2 8319   0.957   2.523   0.956  3.1078 -0.0686  0.2414
 2755SOL     OW 8320   1.908   3.028   0.972 -0.0070  0.2075 -0.5659
 2755SOL    HW1 8321   1.924   3.008   0.880  1.3530 -1.2328 -0.0711
 2755SOL    HW2 8322   1.921   3.122   0.980 -0.9842  0.4872 -1.9813
 2756SOL     OW 8323   2.747   2.034   2.642 -0.6089  0.1346  0.4665
 2756SOL    HW1 8324   2.704   2.107   2.686 -1.0893  1.0041 -1.3835
 2756SOL    HW2 8325   2.699   2.023   2.560  0.8000 -0.8493 -0.2682
 2757SOL     OW 8326   1.400   1.118   3.386  0.2239 -0.2613  0.1088
 2757SOL    HW1 8327   1.382   1.025   3.371  1.9602 -0.2837 -2.3378
 2757SOL    HW2 8328   1.432   1.121   3.477 -1.8028 -1.6831  0.9473
 2758SOL     OW 8329   2.545   3.730   0.416 -0.1635  0.1087  0.3070
 2758SOL    HW1 8330   2.530   3.746   0.323 -0.5094  1.1681  0.5342
 2758SOL    HW2 8331   2.589   3.808   0.448 -1.0233  0.2399  1.2566
 2759SOL     OW 8332   1.644   3.310   2.072  0.3144 -0.2536 -0.7499
 2759SOL    HW1 8333   1.705   3.237   2.088 -0.6835 -0.4626  3.2333
 2759SOL    HW2 8334   1.701   3.386   2.059  1.5516 -0.5852  2.0293
 2760SOL     OW 8335   4.202   4.491   3.120 -0.1762  0.1325  0.1958
 2760SOL    HW1 8336   4.173   4.436   3.048  0.0860  1.0822 -0.6688
 2760SOL    HW2 8337   4.124   4.504   3.174 -0.4663 -0.2937 -0.1197
 2761SOL     OW 8338   3.202   0.959   2.749  0.2106 -0.4610 -0.0145
 2761SOL    HW1 8339   3.214   0.881   2.695 -1.1022 -1.3692  0.9514
 2761SOL    HW2 8340   3.150   0.929   2.824 -2.0780  1.6951 -0.5984
 2762SOL     OW 8341   3.272   0.260   0.973 -0.0641  0.0350  0.1776
 2762SOL    HW1 8342   3.337   0.268   1.043  0.5368 -0.7319 -0.2607
 2762SOL    HW2 8343   3.231   0.346   0.968 -0.0285  0.1401  1.3775
 2763SOL     OW 8344   4.287   3.557   0.266  0.5131 -0.0909  0.1658
 2763SOL    HW1 8345   4.268   3.651   0.269  0.8738 -0.0347  1.2598
 2763SOL    HW2 8346   4.303   3.538   0.174 -0.9962  0.6309 -0.2743
 2764SOL     OW 8347   2.066   0.463   0.250 -0.0781 -0.1893 -0.8242
 2764SOL    HW1 8348   2.069   0.540   0.308 -1.0287  0.1084 -1.1451
 2764SOL    HW2 8349   2.140   0.409   0.279  0.4842  0.7396 -0.4517
 2765SOL     OW 8350   0.197   0.135   4.602  0.1700 -0.2827  0.0082
 2765SOL    HW1 8351   0.136   0.177   4.542  0.9804  0.2925 -0.4406
 2765SOL    HW2 8352   0.219   0.204   4.666 -4.0745 -1.9913  3.8409
 2766SOL     OW 8353   1.023   1.636   0.435  0.0325  0.6423 -0.6583
 2766SOL    HW1 8354   0.937   1.672   0.413  0.3684  0.6156 -2.0551
 2766SOL    HW2 8355   1.074   1.712   0.463 -0.6251  0.5649  0.8644
 2767SOL     OW 8356   2.669   1.901   1.143  0.0542  0.4002  0.2319
 2767SOL    HW1 8357   2.621   1.899   1.226 -0.4863  0.3138 -0.0754
 2767SOL    HW2 8358   2.606   1.937   1.080  0.1986 -0.2724 -0.3058
 2768SOL     OW 8359   4.329   2.231   1.352  0.0299  0.8478 -0.1012
 2768SOL    HW1 8360   4.283   2.148   1.341  1.0152  0.0658  1.3013
 2768SOL    HW2 8361   4.307   2.281   1.274 -0.1244 -0.9702 -1.2999
 2769SOL     OW 8362   4.508   4.330   2.113  0.3946 -0.3079 -0.4747
 2769SOL    HW1 8363   4.477   4.358   2.200  1.8791  0.0422 -0.0193
 2769SOL    HW2 8364   4.562   4.253   2.131  1.5218  0.3476 -0.9351
 2770SOL     OW 8365   3.213   2.889   2.363 -0.2362  0.3434 -0.1707
 2770SOL    HW1 8366   3.138   2.938   2.327 -0.4449  0.0568 -0.1313
 2770SOL    HW2 8367   3.177   2.803   2.383 -0.3935  0.7993  1.7228
 2771SOL     OW 8368   1.241   3.449   3.213  0.2567  0.4442  0.3473
 2771SOL    HW1 8369   1.156   3.403   3.213  0.6381 -0.3662 -1.5481
 2771SOL    HW2 8370   1.235   3.510   3.286 -1.5526 -0.3417  0.9235
 2772SOL     OW 8371   4.724   2.168   0.826 -0.4571 -0.3897  0.2752
 2772SOL    HW1 8372   4.644   2.135   0.784 -1.2359  0.1891  1.2499
 2772SOL    HW2 8373   4.702   2.259   0.850 -0.1187 -0.7392  2.0507
 2773SOL     OW 8374   1.516   1.093   2.728  0.0709  0.2156  1.0202
 2773SOL    HW1 8375   1.497   1.016   2.782 -1.1088  0.9222  1.6461
 2773SOL    HW2 8376   1.609   1.084   2.706  0.3852 -0.4988  2.5091
 2774SOL     OW 8377   1.928   4.355   0.215  0.2276 -0.9102  0.2455
 2774SOL    HW1 8378   1.981   4.424   0.254 -2.1934 -0.4708  3.1121
 2774SOL    HW2 8379   1.917   4.381   0.124  0.6092  1.7302  0.8913
 2775SOL     OW 8380   3.715   3.633   2.349 -0.1143 -0.2461 -0.2314
 2775SOL    HW1 8381   3.713   3.621   2.254  0.7803 -2.2466 -0.0420
 2775SOL    HW2 8382   3.788   3.693   2.364 -0.8371  0.8283 -0.8317
 2776SOL     OW 8383   4.430   3.753   1.076  0.2472  0.4649  0.7427
 2776SOL    HW1 8384   4.475   3.690   1.019 -1.0591 -0.4015  0.6235
 2776SOL    HW2 8385   4.448   3.722   1.165 -0.2526  0.0022  0.6894
 2777SOL     OW 8386   2.166   2.637   0.530  0.4121  0.4104  0.4088
 2777SOL    HW1 8387   2.114   2.717   0.529  0.0877  0.1957 -0.2581
 2777SOL    HW2 8388   2.102   2.566   0.533  0.6045  0.1171 -1.2826
 2778SOL     OW 8389   0.251   2.260   3.792  0.5576 -0.3371  0.1118
 2778SOL    HW1 8390   0.336   2.243   3.832  0.5217 -1.4760 -0.2497
 2778SOL    HW2 8391   0.189   2.214   3.849  0.4913 -1.8502 -1.1284
 2779SOL     OW 8392   3.560   2.640  -0.026 -0.1853  0.4305 -0.7012
 2779SOL    HW1 8393   3.578   2.640   0.068 -2.1217 -0.6943 -0.2630
 2779SOL    HW2 8394   3.519   2.725  -0.042  1.8397  1.4192 -0.9641
 2780SOL     OW 8395   2.456   2.425   1.079 -0.6328  0.2996 -0.0014
 2780SOL    HW1 8396   2.417   2.350   1.033 -0.4191  0.9103 -1.2333
 2780SOL    HW2 8397   2.503   2.473   1.011 -0.5725  1.4347  0.8026
 2781SOL     OW 8398   4.856   2.535   0.076  0.2063  0.2652  0.1696
 2781SOL    HW1 8399   4.949   2.554   0.084  0.4013 -0.1787 -0.7990
 2781SOL    HW2 8400   4.814   2.620   0.061  0.5004  0.4302  0.2887
 2782SOL     OW 8401   4.566   2.052   4.182  0.4603 -0.1040  0.0679
 2782SOL    HW1 8402   4.535   2.125   4.235  3.0087 -0.9580  2.9828
 2782SOL    HW2 8403   4.513   1.977   4.211  0.1194 -0.1043 -0.5252
 2783SOL     OW 8404   2.788   4.064   4.036 -0.1975  0.1076 -0.2977
 2783SOL    HW1 8405   2.834   3.987   4.003  0.8492  1.2117 -1.5553
 2783SOL    HW2 8406   2.737   4.095   3.961  0.6835  1.5556 -0.3349
 2784SOL     OW 8407   2.372   1.689   2.479  0.1600  0.3245 -0.2435
 2784SOL    HW1 8408   2.464   1.688   2.503  0.5146  3.8160 -0.9996
 2784SOL    HW2 8409   2.329   1.736   2.551 -1.0320 -0.9258 -0.0874
 2785SOL     OW 8410   0.957   1.672   0.720  0.2482  0.1954  0.3038
 2785SOL    HW1 8411   0.950   1.767   0.727  2.9463  0.4016  1.3709
 2785SOL    HW2 8412   0.978   1.656   0.628 -0.4452  0.5921  0.0737
 2786SOL     OW 8413   1.113   4.031   4.520  0.2865  0.1966 -0.5577
 2786SOL    HW1 8414   1.205   4.047   4.497  0.5141 -1.7585 -1.2435
 2786SOL    HW2 8415   1.064   4.053   4.442  0.3147  0.1122 -0.6001
 2787SOL     OW 8416   1.610   1.817   0.981 -0.1237  0.5890  0.3183
 2787SOL    HW1 8417   1.654   1.878   1.040  0.8435 -0.2496  0.4932
 2787SOL    HW2 8418   1.544   1.774   1.036 -0.2029  0.8384  0.4194
 2788SOL     OW 8419   4.693   3.745   2.476 -0.8870  0.1449  0.0578
 2788SOL    HW1 8420   4.784   3.774   2.477 -1.1566  1.0501  1.1904
 2788SOL    HW2 8421   4.696   3.653   2.500 -0.3279  0.4332  1.1489
 2789SOL     OW 8422   3.378   4.206   2.065 -0.1473  0.2612  0.4168
 2789SOL    HW1 8423   3.418   4.133   2.112  0.0858  0.6258  0.7827
 2789SOL    HW2 8424   3.358   4.271   2.132 -0.2576  0.5823  0.0788
 2790SOL     OW 8425   0.474   2.951   0.218  0.5348  0.0730 -0.1168
 2790SOL    HW1 8426   0.551   2.900   0.241  0.5343  0.3786  0.5703
 2790SOL    HW2 8427   0.412   2.935   0.289 -0.0847 -0.2579 -0.7158
 2791SOL     OW 8428   3.268   0.542   2.207  0.2603 -0.1279  0.2123
 2791SOL    HW1 8429   3.202   0.558   2.275 -0.3444 -0.4231 -0.3046
 2791SOL    HW2 8430   3.291   0.450   2.217 -0.5816 -0.4430 -0.6381
 2792SOL     OW 8431   3.566   3.446   2.971 -0.0516 -0.1149  0.0292
 2792SOL    HW1 8432   3.550   3.439   3.065  2.3114 -1.4990  0.4040
 2792SOL    HW2 8433   3.483   3.476   2.935 -0.9794  0.6157  2.5576
 2793SOL     OW 8434   2.616   1.406   2.881  0.2634 -0.6712  0.6073
 2793SOL    HW1 8435   2.667   1.379   2.958 -0.5269 -2.7371  0.4740
 2793SOL    HW2 8436   2.622   1.331   2.822  0.8718  0.8879 -1.4028
 2794SOL     OW 8437   3.437   2.680   3.870 -0.5520 -0.2131 -0.1276
 2794SOL    HW1 8438   3.464   2.589   3.882 -1.1962 -0.6101 -1.5265
 2794SOL    HW2 8439   3.510   2.731   3.904  1.9842 -1.2478 -3.4285
 2795SOL     OW 8440   2.719   2.068   4.339 -0.2347 -0.3334 -0.1845
 2795SOL    HW1 8441   2.811   2.088   4.358 -0.7035  1.1145  0.6731
 2795SOL    HW2 8442   2.721   1.978   4.307  1.3193 -0.8612  1.2406
 2796SOL     OW 8443   1.912   0.688   4.718  0.0978 -0.5348 -0.5706
 2796SOL    HW1 8444   1.858   0.766   4.734  0.2900 -0.6568  0.8151
 2796SOL    HW2 8445   1.890   0.629   4.790  2.1483 -0.5274  0.1282
 2797SOL     OW 8446   0.534   1.172   4.535 -0.0900 -0.1283 -0.2777
 2797SOL    HW1 8447   0.565   1.170   4.625 -1.7710  1.0061  0.3766
 2797SOL    HW2 8448   0.512   1.081   4.515  0.2412 -0.3798  0.4715
 2798SOL     OW 8449   3.389   1.006   0.021 -0.1144 -0.0802  0.0701
 2798SOL    HW1 8450   3.443   0.935   0.058  0.5507  0.8968  1.0450
 2798SOL    HW2 8451   3.435   1.086   0.046  0.0684  0.6719 -2.4658
 2799SOL     OW 8452   1.532   2.966   1.639 -0.0340  0.1105  0.2000
 2799SOL    HW1 8453   1.489   3.044   1.603  1.3450  1.0098  0.4355
 2799SOL    HW2 8454   1.611   2.999   1.681  0.1475 -1.3334  1.0590
 2800SOL     OW 8455   3.038   0.790   3.152 -0.0445 -0.1906  0.1090
 2800SOL    HW1 8456   3.070   0.878   3.172  0.5258 -0.3821  0.0694
 2800SOL    HW2 8457   3.092   0.761   3.078 -1.5746  0.1940 -1.2088
 2801SOL     OW 8458   4.493   0.313   0.579  0.2547 -0.3275  0.6160
 2801SOL    HW1 8459   4.530   0.401   0.574  1.7105 -0.8399  1.8345
 2801SOL    HW2 8460   4.439   0.306   0.500  1.7342  0.9171 -0.5779
 2802SOL     OW 8461   0.697   3.314   0.288  0.1311  0.0822 -0.3318
 2802SOL    HW1 8462   0.632   3.384   0.295 -1.0686 -0.9729 -0.5599
 2802SOL    HW2 8463   0.664   3.257   0.219  0.0515 -1.7483  1.1380
 2803SOL     OW 8464   0.953   0.718   4.666  0.0266  0.0335 -0.1047
 2803SOL    HW1 8465   1.009   0.641   4.654 -1.9065 -1.4699 -0.0219
 2803SOL    HW2 8466   0.942   0.726   4.760  0.0504  0.2783 -0.1224
 2804SOL     OW 8467   1.819   3.096   0.657 -0.4759  0.0309 -0.0795
 2804SOL    HW1 8468   1.804   3.099   0.563  0.0117 -1.3708 -0.2257
 2804SOL    HW2 8469   1.737   3.127   0.696 -0.7579  0.3981 -0.9470
 2805SOL     OW 8470   2.403   4.961   4.416  0.2787  0.1289  0.1230
 2805SOL    HW1 8471   2.310   4.977   4.436  0.4316  0.6824  0.4057
 2805SOL    HW2 8472   2.403   4.930   4.326 -0.0517  1.5563 -0.3871
 2806SOL     OW 8473   0.208   0.437   0.971  0.0782 -0.0405 -0.3523
 2806SOL    HW1 8474   0.206   0.533   0.969  1.4525  0.0452  0.9746
 2806SOL    HW2 8475   0.269   0.413   0.901 -1.3122 -0.0666 -1.6333
 2807SOL     OW 8476   3.736   1.576   1.638  0.1748  0.3641 -0.5990
 2807SOL    HW1 8477   3.766   1.607   1.553  2.5879 -1.1933 -0.4029
 2807SOL    HW2 8478   3.760   1.484   1.640 -0.1755  0.2710  1.6131
 2808SOL     OW 8479   4.554   1.809   2.855 -0.2614  0.0846 -0.2239
 2808SOL    HW1 8480   4.535   1.716   2.844  0.3596 -0.0840  0.0708
 2808SOL    HW2 8481   4.630   1.811   2.913  0.0555  0.7619 -0.6512
 2809SOL     OW 8482   1.333   0.490   0.184 -0.4064 -0.1641 -0.4172
 2809SOL    HW1 8483   1.300   0.420   0.127 -2.3053  0.5592 -0.2561
 2809SOL    HW2 8484   1.350   0.563   0.126  0.6684 -0.4101 -0.4468
 2810SOL     OW 8485   4.363   4.077   2.787  0.7875 -0.0324  0.1937
 2810SOL    HW1 8486   4.354   4.081   2.882 -2.7107  1.5360 -0.0201
 2810SOL    HW2 8487   4.334   4.163   2.757  1.6780 -0.5286 -2.3157
 2811SOL     OW 8488   1.466   0.267   1.405  0.3128  0.4992  0.5111
 2811SOL    HW1 8489   1.436   0.194   1.351  0.1820  0.7397  0.2594
 2811SOL    HW2 8490   1.516   0.226   1.475 -0.6588  0.0783  0.9764
 2812SOL     OW 8491   4.154   4.457   0.369 -0.4297 -0.2990  0.6916
 2812SOL    HW1 8492   4.091   4.457   0.297 -1.8820 -0.5436  1.9364
 2812SOL    HW2 8493   4.169   4.365   0.388 -1.3453 -0.2412  1.7830
 2813SOL     OW 8494   2.525   0.572   2.899  0.0330  0.2240 -0.5604
 2813SOL    HW1 8495   2.534   0.478   2.884  1.3260  0.2263  0.0661
 2813SOL    HW2 8496   2.481   0.579   2.984 -2.3948  0.2249 -1.7217
 2814SOL     OW 8497   1.792   0.442   4.907  0.3973 -0.3511  0.2117
 2814SOL    HW1 8498   1.719   0.467   4.964  0.3371 -0.4432  0.1759
 2814SOL    HW2 8499   1.863   0.420   4.968 -0.0753 -1.7089  0.2934
 2815SOL     OW 8500   0.862   0.119   1.189 -0.2276  0.0074  0.0211
 2815SOL    HW1 8501   0.892   0.163   1.269  0.8073 -1.5353  0.5446
 2815SOL    HW2 8502   0.814   0.042   1.221 -0.2037 -0.3722 -0.8284
 2816SOL     OW 8503   0.341   4.558   0.970 -0.0873  0.3626  0.1009
 2816SOL    HW1 8504   0.246   4.558   0.977 -0.3033  0.7527 -2.0496
 2816SOL    HW2 8505   0.364   4.650   0.958  0.4063  0.1358 -0.7762
 2817SOL     OW 8506   4.419   0.522   0.294 -0.2334 -0.2532 -0.1800
 2817SOL    HW1 8507   4.349   0.587   0.290 -0.1459  0.0687  2.1145
 2817SOL    HW2 8508   4.388   0.458   0.359  1.7109  0.0813  1.1527
 2818SOL     OW 8509   3.823   1.392   0.802 -0.3276  0.0265 -0.3752
 2818SOL    HW1 8510   3.915   1.370   0.810 -0.8285 -1.5905  1.9429
 2818SOL    HW2 8511   3.819   1.486   0.823  0.7856  0.0973 -0.4375
 2819SOL     OW 8512   2.307   1.060   1.492 -0.1833 -0.1176  0.0619
 2819SOL    HW1 8513   2.332   0.975   1.527 -0.7689 -0.4110 -0.2117
 2819SOL    HW2 8514   2.247   1.096   1.557  1.0541  0.6691  0.8124
 2820SOL     OW 8515   0.954   3.420   3.269  0.5147  0.4964  0.3951
 2820SOL    HW1 8516   0.952   3.430   3.364 -1.4599 -2.4856  0.7987
 2820SOL    HW2 8517   0.865   3.441   3.241  0.5899 -0.4100 -0.5450
 2821SOL     OW 8518   4.636   3.652   0.659 -0.5116 -0.2946  0.1077
 2821SOL    HW1 8519   4.588   3.700   0.591 -0.7752  0.5023  0.8359
 2821SOL    HW2 8520   4.707   3.608   0.612 -1.5720 -0.9744 -0.8939
 2822SOL     OW 8521   3.675   3.567   0.211 -0.3620 -0.1413 -0.4092
 2822SOL    HW1 8522   3.769   3.554   0.224 -0.6961 -3.1581 -0.2810
 2822SOL    HW2 8523   3.667   3.658   0.181  2.4571  0.5384  0.5734
 2823SOL     OW 8524   1.733   4.547   3.728 -0.6600 -0.1975 -0.4757
 2823SOL    HW1 8525   1.670   4.583   3.790 -0.6309 -1.5562  0.3789
 2823SOL    HW2 8526   1.802   4.613   3.723  0.2696 -0.7921  2.4075
 2824SOL     OW 8527   1.399   2.832   4.027 -0.0294  0.4436  0.5541
 2824SOL    HW1 8528   1.413   2.746   4.067 -0.5645  0.1469  0.1109
 2824SOL    HW2 8529   1.368   2.813   3.939  1.5549  1.0782 -0.1888
 2825SOL     OW 8530   0.168   3.309   2.676  0.9624  0.6201 -0.4227
 2825SOL    HW1 8531   0.075   3.288   2.673  1.3049 -0.9585 -1.3190
 2825SOL    HW2 8532   0.211   3.226   2.697  2.2300  1.0782 -1.0892
 2826SOL     OW 8533   0.724   2.069   4.086 -0.1159 -0.2336 -0.2816
 2826SOL    HW1 8534   0.809   2.053   4.045 -0.6426 -0.1706 -1.4657
 2826SOL    HW2 8535   0.663   2.074   4.012 -1.1202 -0.1020  0.5306
 2827SOL     OW 8536   4.244   1.148   2.954  0.1853  0.1965 -0.2447
 2827SOL    HW1 8537   4.327   1.163   2.909  0.7116 -0.2821  0.5301
 2827SOL    HW2 8538   4.200   1.233   2.954  1.3906  0.8504  0.7305
 2828SOL     OW 8539   4.309   3.627   0.654 -0.0219  0.3911  0.0148
 2828SOL    HW1 8540   4.255   3.706   0.650 -0.0653  0.3410 -0.3789
 2828SOL    HW2 8541   4.399   3.659   0.660 -0.0835  0.4735  0.5581
 2829SOL     OW 8542   0.428   3.514   3.877  0.2652 -0.1042  0.4894
 2829SOL    HW1 8543   0.410   3.464   3.957  1.1961  0.0543  0.8146
 2829SOL    HW2 8544   0.511   3.558   3.895  0.6908 -0.3790 -0.7196
 2830SOL     OW 8545   1.175   4.777   0.443  0.3083 -0.4905  0.4089
 2830SOL    HW1 8546   1.221   4.847   0.489  2.0246 -1.9454  1.0273
 2830SOL    HW2 8547   1.197   4.790   0.351  0.4144 -0.0806  0.4913
 2831SOL     OW 8548   1.159   2.587   3.570  0.0612 -0.3540  0.2670
 2831SOL    HW1 8549   1.195   2.673   3.549 -0.6620 -0.3070 -0.8532
 2831SOL    HW2 8550   1.235   2.535   3.596  0.5885  0.4250  0.3244
 2832SOL     OW 8551   1.168   0.632   2.514  0.1695  0.3530  0.0417
 2832SOL    HW1 8552   1.113   0.646   2.438  0.1231 -0.1074 -0.0099
 2832SOL    HW2 8553   1.132   0.554   2.556 -0.3698  1.1138  1.0409
 2833SOL     OW 8554   4.341   3.221   2.556 -0.2277  0.0965 -0.2717
 2833SOL    HW1 8555   4.417   3.211   2.613  0.3668 -0.5402 -1.1543
 2833SOL    HW2 8556   4.265   3.206   2.613  0.3623 -0.8708  0.2729
 2834SOL     OW 8557   4.958   3.307   4.103 -0.3366 -0.0075 -0.4605
 2834SOL    HW1 8558   4.891   3.374   4.088  1.3970  1.5437 -1.6897
 2834SOL    HW2 8559   4.958   3.294   4.198  0.6877  3.4028  0.1576
 2835SOL     OW 8560   2.609   4.223   0.124 -0.2664 -0.2153 -0.4450
 2835SOL    HW1 8561   2.562   4.253   0.046 -0.2703  2.2033  0.3976
 2835SOL    HW2 8562   2.545   4.231   0.195  0.9834  2.1785  0.5460
 2836SOL     OW 8563   4.165   3.840   3.195 -0.0084  0.1548  0.1633
 2836SOL    HW1 8564   4.088   3.898   3.194  1.2709  1.9084 -0.2710
 2836SOL    HW2 8565   4.161   3.794   3.111 -0.3617  0.5453 -0.0401
 2837SOL     OW 8566   1.322   3.311   2.990  0.1155 -0.3221 -0.3389
 2837SOL    HW1 8567   1.285   3.333   3.075 -0.8801  0.7658 -1.0068
 2837SOL    HW2 8568   1.348   3.396   2.953 -0.7215 -0.6094 -1.6508
 2838SOL     OW 8569   1.611   2.078   3.812  0.0656  0.0629  0.5356
 2838SOL    HW1 8570   1.538   2.019   3.791  0.7152 -0.0824 -1.5603
 2838SOL    HW2 8571   1.689   2.024   3.797  0.6337  0.6375  1.3764
 2839SOL     OW 8572   0.860   1.682   4.043 -0.4298 -0.3828  0.6240
 2839SOL    HW1 8573   0.899   1.766   4.066 -0.3114 -0.3745  0.4025
 2839SOL    HW2 8574   0.839   1.690   3.950  0.5337 -0.9610  0.3468
 2840SOL     OW 8575   0.883   0.907   3.195  0.4393 -0.4556  0.0612
 2840SOL    HW1 8576   0.870   0.826   3.145  0.0645  0.1758 -0.8818
 2840SOL    HW2 8577   0.823   0.899   3.269 -0.8170 -0.3210 -0.9211
 2841SOL     OW 8578   0.328   4.469   4.041  0.7165  0.5001  0.3946
 2841SOL    HW1 8579   0.423   4.468   4.050  0.6791  0.2541  0.7882
 2841SOL    HW2 8580   0.313   4.445   3.950  0.9901 -1.2941  0.7745
 2842SOL     OW 8581   3.926   2.833   0.739 -0.1099 -0.6632  0.0895
 2842SOL    HW1 8582   4.012   2.815   0.777 -0.1321  0.2089  0.5745
 2842SOL    HW2 8583   3.943   2.844   0.645  0.8452  2.4862  0.5137
 2843SOL     OW 8584   4.001   3.698   4.274 -0.1156 -0.5480  0.1712
 2843SOL    HW1 8585   3.986   3.618   4.324 -0.9018 -0.5925 -0.1167
 2843SOL    HW2 8586   3.971   3.677   4.185  3.7534 -1.3895 -1.1367
 2844SOL     OW 8587   0.275   2.357   2.284 -0.0215 -0.6297  0.3631
 2844SOL    HW1 8588   0.293   2.288   2.220 -0.7068  0.1043 -0.6510
 2844SOL    HW2 8589   0.193   2.332   2.325  0.0105 -0.6878  0.3923
 2845SOL     OW 8590   2.111   1.388   4.159 -0.3171  0.3783  0.0899
 2845SOL    HW1 8591   2.055   1.412   4.085 -1.0329  0.1593  0.5590
 2845SOL    HW2 8592   2.199   1.381   4.120 -0.8031 -0.4977 -0.8996
 2846SOL     OW 8593   4.832   2.289   4.487 -0.1420 -0.5795  0.0429
 2846SOL    HW1 8594   4.815   2.212   4.541  0.6940  0.3644  1.7205
 2846SOL    HW2 8595   4.825   2.257   4.397 -1.5901 -2.1975  0.6806
 2847SOL     OW 8596   2.483   2.144   1.226  0.1019 -0.7390 -0.1332
 2847SOL    HW1 8597   2.454   2.194   1.302  0.7220  1.6605 -1.3685
 2847SOL    HW2 8598   2.570   2.180   1.205  0.2213 -1.7669 -1.5840
 2848SOL     OW 8599   1.917   2.306   2.364 -0.0676  0.1156  0.4275
 2848SOL    HW1 8600   1.968   2.242   2.412  0.7096  0.1159 -0.3715
 2848SOL    HW2 8601   1.888   2.368   2.431  0.0053 -0.5192  1.0604
 2849SOL     OW 8602   3.271   3.567   3.645 -0.8866 -0.0453  0.4145
 2849SOL    HW1 8603   3.200   3.504   3.632 -0.3630 -0.7395  0.7934
 2849SOL    HW2 8604   3.350   3.521   3.614 -0.5555  0.5808  0.3105
 2850SOL     OW 8605   3.356   4.521   0.763  0.3448 -0.3578  0.4745
 2850SOL    HW1 8606   3.283   4.544   0.706 -0.3372 -0.2340  1.3872
 2850SOL    HW2 8607   3.369   4.427   0.749 -0.1241 -0.4218  0.4666
 2851SOL     OW 8608   0.604   4.493   3.059 -0.0355 -0.1279  0.1238
 2851SOL    HW1 8609   0.687   4.520   3.098 -0.6933  1.6895  0.3761
 2851SOL    HW2 8610   0.556   4.575   3.048 -0.2210 -0.5609 -3.7948
 2852SOL     OW 8611   0.635   4.853   4.931 -0.0336  0.3867  0.6300
 2852SOL    HW1 8612   0.551   4.846   4.886 -0.2419 -0.2742  1.1071
 2852SOL    HW2 8613   0.613   4.884   5.018  0.0583 -1.0843  1.2063
 2853SOL     OW 8614   1.987   1.213   0.664  0.3886  0.4359 -0.1171
 2853SOL    HW1 8615   2.009   1.284   0.603  1.0579  0.5240  0.2158
 2853SOL    HW2 8616   1.897   1.189   0.642  0.2105  1.2789 -0.3380
 2854SOL     OW 8617   1.728   4.851   1.278  0.0039  0.3592 -0.0045
 2854SOL    HW1 8618   1.667   4.822   1.211 -0.4021  0.5161  0.2938
 2854SOL    HW2 8619   1.774   4.771   1.305  0.1895  0.2989 -0.4813
 2855SOL     OW 8620   2.821   4.771   4.038  0.1543  0.0434 -0.1518
 2855SOL    HW1 8621   2.836   4.859   4.003  1.9896 -0.0703  0.2502
 2855SOL    HW2 8622   2.841   4.779   4.132  3.4092 -1.3947 -0.6018
 2856SOL     OW 8623   1.593   0.115   1.594 -0.4487  0.7304 -0.4795
 2856SOL    HW1 8624   1.679   0.094   1.631  0.2636  2.2131 -1.1874
 2856SOL    HW2 8625   1.531   0.066   1.648  0.8588 -0.8773 -0.3550
 2857SOL     OW 8626   4.584   3.023   1.083  0.7305 -0.5095 -0.6791
 2857SOL    HW1 8627   4.596   3.070   1.000  0.0852 -0.7419 -0.9090
 2857SOL    HW2 8628   4.595   3.090   1.151 -3.9104  0.9542 -1.0230
 2858SOL     OW 8629   3.063   4.668   1.041  1.1750  0.1280  0.0151
 2858SOL    HW1 8630   3.021   4.617   0.971  0.5196 -2.3333  2.0513
 2858SOL    HW2 8631   2.991   4.717   1.080  1.6578  2.0471 -1.3771
 2859SOL     OW 8632   3.019   4.804   2.059  0.2569  0.7266  0.3016
 2859SOL    HW1 8633   3.095   4.768   2.105 -0.7310 -0.5098  1.0289
 2859SOL    HW2 8634   3.037   4.898   2.054  1.1856  0.6628  1.7224
 2860SOL     OW 8635   1.532   3.530   3.483 -0.7353  0.0888 -0.2474
 2860SOL    HW1 8636   1.458   3.543   3.542 -0.8220 -1.0085 -0.0939
 2860SOL    HW2 8637   1.536   3.610   3.431 -2.0240  0.1629 -0.2497
 2861SOL     OW 8638   3.353   3.252   2.337  0.3026 -0.0618  0.6357
 2861SOL    HW1 8639   3.266   3.225   2.308  0.2453  1.8980 -1.2229
 2861SOL    HW2 8640   3.338   3.329   2.392  0.8352 -0.0269  0.7426
 2862SOL     OW 8641   0.033   2.384   0.997  0.4136 -0.3183 -0.4494
 2862SOL    HW1 8642  -0.046   2.404   1.048 -0.5786  0.2132 -2.1319
 2862SOL    HW2 8643   0.104   2.425   1.046 -0.8812  2.8790 -1.0239
 2863SOL     OW 8644   4.798   3.456   1.502  0.5894  0.5190 -0.0591
 2863SOL    HW1 8645   4.772   3.374   1.545 -0.9820  0.8900 -0.2345
 2863SOL    HW2 8646   4.890   3.443   1.479  0.4017 -1.1587 -0.0024
 2864SOL     OW 8647   2.991   2.616   3.157  0.0488  0.3444 -0.7942
 2864SOL    HW1 8648   3.010   2.612   3.064 -0.5368  0.3246 -0.9217
 2864SOL    HW2 8649   2.908   2.568   3.167  0.4560 -0.2470 -0.1633
 2865SOL     OW 8650   3.239   0.631   0.700 -0.0423 -0.1627 -0.4272
 2865SOL    HW1 8651   3.187   0.695   0.651  0.3464  0.2490 -0.3067
 2865SOL    HW2 8652   3.329   0.646   0.671 -0.0824 -1.4506 -1.2749
 2866SOL     OW 8653   0.983   3.706   2.167 -0.3653 -0.9146  0.1244
 2866SOL    HW1 8654   0.892   3.702   2.138  0.1302  0.7301 -1.9187
 2866SOL    HW2 8655   0.978   3.736   2.258 -1.8860  0.9673 -0.5040
 2867SOL     OW 8656   0.586   2.802  -0.002 -0.5584 -0.1452 -0.2220
 2867SOL    HW1 8657   0.524   2.797   0.071  0.7042 -1.3024  0.8193
 2867SOL    HW2 8658   0.555   2.736  -0.064 -0.9694  0.0249 -0.2004
 2868SOL     OW 8659   1.830   3.812   0.246  0.4050  0.5151  0.3015
 2868SOL    HW1 8660   1.894   3.754   0.286  0.6795  2.1841  2.4840
 2868SOL    HW2 8661   1.869   3.899   0.253 -1.3931  1.3753  0.2040
 2869SOL     OW 8662   2.446   4.941   2.953  0.0745  0.1704 -0.2014
 2869SOL    HW1 8663   2.392   4.865   2.978 -0.2514  0.7367  0.8892
 2869SOL    HW2 8664   2.424   4.957   2.861 -0.9664 -0.1598 -0.0218
 2870SOL     OW 8665   4.855   0.348   0.025  0.0318 -0.1635  0.1877
 2870SOL    HW1 8666   4.926   0.370   0.086  0.7071  1.4169 -1.0750
 2870SOL    HW2 8667   4.778   0.336   0.081  0.4020  2.1569  1.3206
 2871SOL     OW 8668   0.872   1.437   3.975  0.3008 -0.3372  0.2923
 2871SOL    HW1 8669   0.865   1.518   4.025  1.5163 -0.7363  1.1416
 2871SOL    HW2 8670   0.781   1.409   3.962 -0.3965  2.5994 -2.4941
 2872SOL     OW 8671   3.047   3.416   3.626  0.0133  0.1593  0.4456
 2872SOL    HW1 8672   3.036   3.380   3.538 -0.6565 -0.2835  0.7001
 2872SOL    HW2 8673   3.062   3.340   3.682 -1.8567  0.1744  1.0581
 2873SOL     OW 8674   1.730   0.692   2.384  0.0250 -0.2972 -0.3055
 2873SOL    HW1 8675   1.785   0.644   2.446  0.1054 -0.0090 -0.1505
 2873SOL    HW2 8676   1.687   0.624   2.333 -1.8783 -0.6545  1.6132
 2874SOL     OW 8677   1.991   3.033   4.330  0.6230  0.7828  0.3384
 2874SOL    HW1 8678   2.028   3.065   4.412 -1.6966 -0.7757  2.1282
 2874SOL    HW2 8679   1.901   3.066   4.331 -0.3176 -1.6101 -0.1254
 2875SOL     OW 8680   1.470   3.627   3.087  0.0847 -0.2590  0.0917
 2875SOL    HW1 8681   1.422   3.624   3.004  1.2250  0.7652 -0.6374
 2875SOL    HW2 8682   1.408   3.591   3.151 -1.4671  0.5334 -0.8860
 2876SOL     OW 8683   2.359   1.597   4.169  0.2737 -0.3997 -0.1949
 2876SOL    HW1 8684   2.288   1.620   4.229  0.8042  0.0567  0.2707
 2876SOL    HW2 8685   2.363   1.501   4.171 -0.5730 -0.4439 -0.5188
 2877SOL     OW 8686   2.352   3.634   3.928  0.0048 -0.6356 -0.2446
 2877SOL    HW1 8687   2.351   3.551   3.976  1.7584  0.6024  2.1650
 2877SOL    HW2 8688   2.273   3.679   3.956 -0.4359 -1.0678 -0.7754
 2878SOL     OW 8689   1.868   3.082   1.816  0.2515 -0.7436 -0.1815
 2878SOL    HW1 8690   1.827   3.105   1.899 -0.2077 -0.1250 -0.5672
 2878SOL    HW2 8691   1.929   3.155   1.799  0.1947 -0.7669 -0.4865
 2879SOL     OW 8692   0.438   3.543   3.530 -0.0079  0.2436 -0.1197
 2879SOL    HW1 8693   0.421   3.532   3.623  0.6835  0.4184  0.0315
 2879SOL    HW2 8694   0.470   3.457   3.501 -0.7492  0.0250 -0.3240
 2880SOL     OW 8695   2.206   3.385   1.888 -0.1492 -0.3570  0.3797
 2880SOL    HW1 8696   2.296   3.388   1.854 -0.2912 -4.6520 -0.9501
 2880SOL    HW2 8697   2.214   3.419   1.977  2.8931 -0.8335  0.4172
 2881SOL     OW 8698   1.858   2.649   1.628 -0.4358  0.6434  0.8081
 2881SOL    HW1 8699   1.882   2.708   1.556 -1.3662  0.5258  0.3866
 2881SOL    HW2 8700   1.811   2.705   1.690 -1.5167  0.3301  0.3035
 2882SOL     OW 8701   4.664   4.919   3.144 -0.3191  0.1605  0.3985
 2882SOL    HW1 8702   4.610   4.901   3.067  0.8866  1.3538 -0.7652
 2882SOL    HW2 8703   4.602   4.953   3.209 -1.4914 -1.6052  0.2909
 2883SOL     OW 8704   0.203   1.884   0.552  0.4936 -0.3539  0.5058
 2883SOL    HW1 8705   0.112   1.858   0.537  1.2307 -3.6730  1.0017
 2883SOL    HW2 8706   0.201   1.936   0.632 -0.8307 -2.1088  1.6968
 2884SOL     OW 8707   4.275   3.933   4.613  0.1327  0.2911 -0.1140
 2884SOL    HW1 8708   4.370   3.942   4.603  0.1134 -0.0751 -0.6689
 2884SOL    HW2 8709   4.264   3.891   4.698  0.5687 -1.4298 -0.8744
 2885SOL     OW 8710   3.407   4.431   4.774  0.6235 -0.8361 -0.0703
 2885SOL    HW1 8711   3.422   4.525   4.777 -0.9603 -0.5836  0.7018
 2885SOL    HW2 8712   3.320   4.418   4.812 -0.3042 -2.3694 -2.4670
 2886SOL     OW 8713   1.908  -0.015   4.728  0.3850 -0.3888  0.5359
 2886SOL    HW1 8714   1.832  -0.043   4.677  0.1045 -2.6489  2.0602
 2886SOL    HW2 8715   1.906   0.080   4.723 -1.4964 -0.4478 -0.9603
 2887SOL     OW 8716   0.174   1.574   4.656  0.1210 -0.6659  0.3053
 2887SOL    HW1 8717   0.145   1.565   4.565 -1.0414 -1.8865  0.7694
 2887SOL    HW2 8718   0.204   1.486   4.681  2.1506  0.0363  0.5770
 2888SOL     OW 8719   4.341   4.266   1.324 -0.2607  0.1970 -0.2450
 2888SOL    HW1 8720   4.416   4.324   1.313 -1.4392  2.1864  1.4207
 2888SOL    HW2 8721   4.375   4.193   1.377  0.4089  1.3304  0.9434
 2889SOL     OW 8722   0.656   2.337   4.021 -0.0548  0.6471  0.0949
 2889SOL    HW1 8723   0.631   2.293   4.102  0.5517  0.0527 -0.0290
 2889SOL    HW2 8724   0.746   2.364   4.035  0.7072 -1.1032 -1.0180
 2890SOL     OW 8725   0.243   0.858   1.815 -0.0948 -0.5235  0.2945
 2890SOL    HW1 8726   0.155   0.883   1.787 -0.6776 -2.1818  0.4837
 2890SOL    HW2 8727   0.253   0.768   1.784  0.8837 -0.9346  1.6969
 2891SOL     OW 8728   3.762   3.822   2.005 -0.6655 -0.3394  0.0063
 2891SOL    HW1 8729   3.720   3.869   2.077  0.7162  0.5841  0.2412
 2891SOL    HW2 8730   3.714   3.850   1.927 -1.1588 -0.1321  0.3770
 2892SOL     OW 8731   0.889   2.617   4.595  0.0179  0.6272 -0.3480
 2892SOL    HW1 8732   0.977   2.583   4.575  0.7593  2.0769  0.2811
 2892SOL    HW2 8733   0.851   2.635   4.509  0.7294  0.9221 -0.6116
 2893SOL     OW 8734   0.065   1.836   2.628  0.0283 -0.2534  0.2375
 2893SOL    HW1 8735   0.049   1.892   2.704 -0.5128 -2.1199  1.5815
 2893SOL    HW2 8736  -0.006   1.771   2.631  0.3504 -0.7261 -1.5198
 2894SOL     OW 8737   0.974   0.900   0.109 -0.4825 -0.4084  0.3279
 2894SOL    HW1 8738   0.970   0.815   0.153  0.4030  0.0443  1.3314
 2894SOL    HW2 8739   0.890   0.907   0.063 -0.9640 -1.4134  1.0139
 2895SOL     OW 8740   2.416   2.624   0.056  0.3177  0.0168  0.0902
 2895SOL    HW1 8741   2.414   2.638   0.151 -0.2329 -0.5532  0.1701
 2895SOL    HW2 8742   2.333   2.660   0.025  0.6834  0.5976 -0.2433
 2896SOL     OW 8743   2.266   4.669   2.023  0.4615  0.5591  0.4897
 2896SOL    HW1 8744   2.194   4.698   2.079  1.2468  1.4877  1.0460
 2896SOL    HW2 8745   2.223   4.623   1.950 -0.5475 -1.5668  2.3069
 2897SOL     OW 8746   2.257   1.724   0.533  0.3038 -0.2452  0.1151
 2897SOL    HW1 8747   2.271   1.783   0.608  0.5059 -0.3862  0.1903
 2897SOL    HW2 8748   2.172   1.750   0.498  1.3189  1.5662 -1.1653
 2898SOL     OW 8749   1.943   0.459   3.570  0.2972 -0.0839  0.0622
 2898SOL    HW1 8750   2.006   0.487   3.637  1.0194 -1.7488  0.1431
 2898SOL    HW2 8751   1.993   0.462   3.488  0.4046 -1.0905  0.0783
 2899SOL     OW 8752   0.682   3.317   4.270  0.5061  0.6648  0.2238
 2899SOL    HW1 8753   0.715   3.252   4.207 -3.5642 -0.8751 -0.6497
 2899SOL    HW2 8754   0.739   3.307   4.346  2.0202 -1.6689 -1.0579
 2900SOL     OW 8755   2.211   0.652   4.424  0.2968 -0.3160 -0.0979
 2900SOL    HW1 8756   2.256   0.706   4.489  2.0077 -0.7196 -0.9116
 2900SOL    HW2 8757   2.141   0.709   4.391 -0.1881  0.1335  1.5691
 2901SOL     OW 8758   0.366   0.266   0.790 -0.1780  0.0691 -0.5884
 2901SOL    HW1 8759   0.448   0.220   0.806 -0.2761 -0.0125 -0.3267
 2901SOL    HW2 8760   0.309   0.241   0.863  0.3045  1.8922  0.4599
 2902SOL     OW 8761   0.516   1.075   3.673 -0.0067 -0.0016 -0.0579
 2902SOL    HW1 8762   0.565   1.004   3.714  1.9037  1.6154  0.6104
 2902SOL    HW2 8763   0.580   1.144   3.658 -1.6815  1.4210 -1.1432
 2903SOL     OW 8764   1.562   4.138   4.559  0.3824 -0.1706 -0.2408
 2903SOL    HW1 8765   1.647   4.123   4.600  0.6380 -0.4781 -0.8721
 2903SOL    HW2 8766   1.581   4.187   4.480 -0.0450 -0.1164 -0.3127
 2904SOL     OW 8767   2.930   0.501   0.448 -0.4201 -0.4148 -0.3237
 2904SOL    HW1 8768   2.838   0.477   0.451 -0.2749 -0.9352  0.4638
 2904SOL    HW2 8769   2.972   0.443   0.512  0.4433 -0.1524 -0.6301
 2905SOL     OW 8770   3.410   2.781   2.206 -0.0510  0.1393 -0.4417
 2905SOL    HW1 8771   3.405   2.866   2.248  2.1353 -0.0007  0.2071
 2905SOL    HW2 8772   3.362   2.722   2.265 -0.0385  0.5875  0.0202
 2906SOL     OW 8773   2.568   2.538   3.570 -0.2147  0.2368 -0.0432
 2906SOL    HW1 8774   2.474   2.551   3.581 -0.2108  0.4389 -0.2508
 2906SOL    HW2 8775   2.607   2.624   3.586 -0.0994  0.2413 -0.3372
 2907SOL     OW 8776   4.226   2.649   0.741 -0.2062 -0.3337  0.6266
 2907SOL    HW1 8777   4.211   2.727   0.795  0.0916  1.2027 -1.4059
 2907SOL    HW2 8778   4.246   2.683   0.654 -2.2400 -2.7073 -0.9248
 2908SOL     OW 8779   3.889   2.898   4.630  0.3860  0.1365  0.0413
 2908SOL    HW1 8780   3.975   2.888   4.671 -0.8075 -1.6181  2.3373
 2908SOL    HW2 8781   3.830   2.921   4.702 -1.2658  0.2543 -1.2865
 2909SOL     OW 8782   2.043   0.702   0.367  0.0584 -0.5010  0.3611
 2909SOL    HW1 8783   1.981   0.760   0.411  1.4973  2.0479 -0.7485
 2909SOL    HW2 8784   2.128   0.723   0.407  1.1791  0.8629 -2.4557
 2910SOL     OW 8785   3.828   2.576   3.821  0.3030 -0.6149 -0.5417
 2910SOL    HW1 8786   3.819   2.486   3.853  1.9818 -1.1628 -1.4697
 2910SOL    HW2 8787   3.920   2.599   3.839 -0.3058  1.2419  0.4310
 2911SOL     OW 8788   1.407   4.244   1.401  0.8971 -1.0417 -0.6779
 2911SOL    HW1 8789   1.406   4.168   1.459  3.1454  0.5509  1.6521
 2911SOL    HW2 8790   1.459   4.216   1.326  1.5543 -1.8612  0.0641
 2912SOL     OW 8791   4.855   3.281   4.600  0.4271  0.1067  0.6184
 2912SOL    HW1 8792   4.760   3.274   4.587  0.4791  0.9852 -0.4109
 2912SOL    HW2 8793   4.865   3.305   4.692 -0.3606  0.1679  0.6947
 2913SOL     OW 8794   1.403   2.824   3.118  0.4681 -0.1392  0.1760
 2913SOL    HW1 8795   1.468   2.887   3.150  1.1135 -0.7944  0.1694
 2913SOL    HW2 8796   1.444   2.739   3.130 -0.1449 -0.5255 -0.4205
 2914SOL     OW 8797   4.935   4.342   1.563 -0.3469 -0.6183 -0.1499
 2914SOL    HW1 8798   4.931   4.296   1.479 -0.1984  0.1164 -0.5679
 2914SOL    HW2 8799   5.005   4.406   1.551 -2.0892  1.3399 -0.4085
 2915SOL     OW 8800   0.707   1.135   0.293  0.1985 -0.3578  0.0631
 2915SOL    HW1 8801   0.782   1.139   0.352  0.4534  0.1865 -0.2930
 2915SOL    HW2 8802   0.658   1.058   0.322 -0.6883  0.9139  2.2016
 2916SOL     OW 8803   1.855   2.138   4.636  0.5715 -0.2132 -0.1817
 2916SOL    HW1 8804   1.868   2.098   4.722  1.9335  3.4205  1.5012
 2916SOL    HW2 8805   1.942   2.168   4.610 -0.0829  0.1524 -2.1381
 2917SOL     OW 8806   2.461   3.350   4.546  0.2972 -0.0269 -0.2215
 2917SOL    HW1 8807   2.428   3.321   4.461  0.0596 -1.0692  0.2115
 2917SOL    HW2 8808   2.407   3.425   4.569 -1.6144 -1.5032  0.3392
 2918SOL     OW 8809   0.163   0.983   0.586  0.0365  0.1023  0.7539
 2918SOL    HW1 8810   0.211   1.013   0.510 -0.9438  0.5892  0.2990
 2918SOL    HW2 8811   0.199   0.897   0.606  0.7927  0.2810  0.1896
 2919SOL     OW 8812   2.337   4.376   2.058 -0.6673 -0.0185 -0.0193
 2919SOL    HW1 8813   2.337   4.397   1.965 -0.7643 -1.8110 -0.4536
 2919SOL    HW2 8814   2.295   4.451   2.100  0.0354  1.1471 -1.3189
 2920SOL     OW 8815   3.083   0.399   1.306 -0.4540  0.5975 -0.0710
 2920SOL    HW1 8816   3.090   0.349   1.387 -0.7494 -2.4167 -1.7787
 2920SOL    HW2 8817   3.156   0.367   1.252 -2.0818  0.1906 -2.1403
 2921SOL     OW 8818   4.026   2.842   3.835  0.8141  0.7575  0.3232
 2921SOL    HW1 8819   4.052   2.791   3.911  1.3650  0.1277 -0.2798
 2921SOL    HW2 8820   3.975   2.915   3.871  2.8367  1.6802  1.4952
 2922SOL     OW 8821   2.990   0.872   2.043 -0.3055 -0.1072  0.4665
 2922SOL    HW1 8822   2.981   0.777   2.045  1.5288 -0.2937  1.8960
 2922SOL    HW2 8823   2.948   0.901   2.124  1.6973 -0.0113  1.5253
 2923SOL     OW 8824   1.630   2.912   0.436 -0.4926 -0.2338 -0.6170
 2923SOL    HW1 8825   1.551   2.929   0.385 -0.8319 -0.0216 -0.0360
 2923SOL    HW2 8826   1.687   2.986   0.416 -0.7333 -0.0074 -0.4820
 2924SOL     OW 8827   2.347   3.030   4.352  0.2760  0.4270  0.7822
 2924SOL    HW1 8828   2.355   3.122   4.324 -0.2607 -0.1449 -1.4234
 2924SOL    HW2 8829   2.261   3.026   4.394 -0.3874  0.6460 -0.4945
 2925SOL     OW 8830   3.474   0.608   3.527 -0.4730 -0.2339  0.0161
 2925SOL    HW1 8831   3.433   0.563   3.452 -0.3993  1.0237 -0.8042
 2925SOL    HW2 8832   3.542   0.662   3.488  0.5285 -0.6405  1.1601
 2926SOL     OW 8833   4.175   0.835   3.568 -0.0802 -0.0629 -0.2987
 2926SOL    HW1 8834   4.178   0.915   3.619 -0.4296  1.5726 -2.7000
 2926SOL    HW2 8835   4.262   0.827   3.529  0.3495 -1.5695  0.8616
 2927SOL     OW 8836   1.607   2.250   2.496 -0.4820 -0.5811 -0.2415
 2927SOL    HW1 8837   1.585   2.156   2.498  0.3377 -0.7845 -0.1096
 2927SOL    HW2 8838   1.692   2.253   2.452  0.3280 -0.0876  1.2889
 2928SOL     OW 8839   1.960   2.360   0.114  0.3599 -0.2517  0.0443
 2928SOL    HW1 8840   1.926   2.420   0.047  1.4849  0.2824 -0.0767
 2928SOL    HW2 8841   1.883   2.332   0.163 -0.5234 -0.7911 -1.5754
 2929SOL     OW 8842   4.061   3.571   0.496  0.1523  0.1137 -0.1228
 2929SOL    HW1 8843   4.025   3.633   0.559  0.2249  0.0456 -0.0140
 2929SOL    HW2 8844   4.152   3.560   0.522 -0.2933 -1.3642  0.9267
 2930SOL     OW 8845   3.321   1.379   0.654  0.3732  0.3334  0.2987
 2930SOL    HW1 8846   3.241   1.356   0.607  0.1832  0.2730  0.6536
 2930SOL    HW2 8847   3.341   1.302   0.707  1.2736 -0.0898 -0.5973
 2931SOL     OW 8848   3.327   2.044   3.388  0.1145 -0.3877  0.4323
 2931SOL    HW1 8849   3.260   2.014   3.450 -0.6093 -0.5895 -0.4330
 2931SOL    HW2 8850   3.320   2.140   3.391  0.5089 -0.3762  1.1180
 2932SOL     OW 8851   1.076   0.729   1.002 -0.3431  0.4309  0.2394
 2932SOL    HW1 8852   1.052   0.654   1.057  0.4450 -0.3502 -0.4495
 2932SOL    HW2 8853   1.153   0.766   1.044  1.0318 -0.9308 -0.9590
 2933SOL     OW 8854   3.650   3.620   2.794  0.2270 -0.2458 -0.2493
 2933SOL    HW1 8855   3.668   3.556   2.725  1.8722 -0.0279 -0.0790
 2933SOL    HW2 8856   3.614   3.568   2.866  0.5626 -0.8317 -0.4931
 2934SOL     OW 8857   3.231   2.655   0.217 -0.8242  0.2391 -0.2096
 2934SOL    HW1 8858   3.279   2.575   0.238  1.2577  0.5459 -3.2050
 2934SOL    HW2 8859   3.230   2.704   0.299  1.7177 -0.9481  0.6376
 2935SOL     OW 8860   4.903   1.388   4.739  0.5879  0.4915  0.0374
 2935SOL    HW1 8861   4.883   1.445   4.665 -1.6921  1.4796  1.2858
 2935SOL    HW2 8862   4.949   1.444   4.801 -0.7908  0.7770  0.8564
 2936SOL     OW 8863   1.708   3.504   3.888  0.3210 -0.3877  0.1633
 2936SOL    HW1 8864   1.722   3.468   3.800  0.2068  1.7977 -0.8153
 2936SOL    HW2 8865   1.782   3.563   3.902  1.0543 -1.6665  2.1301
 2937SOL     OW 8866  -0.021   3.889   3.711  0.4439 -0.3399  0.0361
 2937SOL    HW1 8867   0.064   3.919   3.743 -0.1288  3.4717 -1.5817
 2937SOL    HW2 8868  -0.001   3.809   3.661  2.7874 -0.4100  0.9671
 2938SOL     OW 8869   1.346   1.783   4.616  0.0398 -0.0246  0.0519
 2938SOL    HW1 8870   1.329   1.854   4.678  1.5439 -0.4337  1.0025
 2938SOL    HW2 8871   1.431   1.805   4.578 -0.3322 -0.3805 -1.0228
 2939SOL     OW 8872   3.420   2.249   4.655  0.0156  0.0481  0.0727
 2939SOL    HW1 8873   3.460   2.333   4.631 -1.0266  0.6103  0.2082
 2939SOL    HW2 8874   3.412   2.252   4.750 -1.6681  0.6068 -0.0523
 2940SOL     OW 8875   0.528   0.867   1.712 -0.2615 -0.1523  0.3978
 2940SOL    HW1 8876   0.441   0.846   1.745  0.8375 -1.3579  2.8134
 2940SOL    HW2 8877   0.536   0.962   1.723 -1.6057  0.1576 -0.9252
 2941SOL     OW 8878   0.181   3.544   1.582  0.0534 -0.3556 -0.3009
 2941SOL    HW1 8879   0.274   3.566   1.587  0.2570 -1.2695  0.1123
 2941SOL    HW2 8880   0.155   3.567   1.492  0.1564  1.8058  0.1728
 2942SOL     OW 8881  -0.009   0.356   2.993  0.0193 -0.1866  0.2691
 2942SOL    HW1 8882   0.072   0.355   2.941  0.7576  1.5406  1.3061
 2942SOL    HW2 8883  -0.048   0.271   2.976  1.2119 -0.4500 -1.5671
 2943SOL     OW 8884   0.747   1.323   0.959  0.4206 -0.1014 -0.0643
 2943SOL    HW1 8885   0.752   1.302   1.052  2.1089 -1.5760 -0.4262
 2943SOL    HW2 8886   0.655   1.344   0.943  0.2164  0.7397  2.0263
 2944SOL     OW 8887   2.535   0.741   4.022  0.0243  0.4677  0.2821
 2944SOL    HW1 8888   2.549   0.653   4.056 -0.8639  0.2645  0.1261
 2944SOL    HW2 8889   2.621   0.783   4.030  0.4011 -0.3339  0.5620
 2945SOL     OW 8890   0.023   3.151   2.397  0.2811 -0.2166  0.2130
 2945SOL    HW1 8891   0.028   3.152   2.493  1.0404 -0.3938  0.1822
 2945SOL    HW2 8892   0.004   3.242   2.374  1.4168  0.1066  0.4817
 2946SOL     OW 8893   3.683   4.791   2.037 -0.1141  0.0143  0.1197
 2946SOL    HW1 8894   3.624   4.718   2.018  1.5040 -1.1680 -0.5832
 2946SOL    HW2 8895   3.694   4.789   2.132  0.3306 -1.0393  0.0638
 2947SOL     OW 8896   2.942   2.593   0.943  0.1295 -0.2521  0.3994
 2947SOL    HW1 8897   2.913   2.502   0.954  3.3720 -1.2885  1.8945
 2947SOL    HW2 8898   2.897   2.623   0.865 -1.1331 -3.1564 -0.1347
 2948SOL     OW 8899   1.369   1.863   0.307  0.1205  0.1097 -0.1554
 2948SOL    HW1 8900   1.461   1.859   0.282  0.0620 -1.7681 -0.2643
 2948SOL    HW2 8901   1.337   1.946   0.271  1.6738  0.6285 -0.4061
 2949SOL     OW 8902   2.731   2.544   1.978  0.0515  0.0007  0.8167
 2949SOL    HW1 8903   2.657   2.558   2.036 -0.3266  0.0236  0.3332
 2949SOL    HW2 8904   2.747   2.450   1.981 -1.1720 -0.2742 -0.4899
 2950SOL     OW 8905   1.300   4.440   2.261  0.2390  0.1882 -0.0118
 2950SOL    HW1 8906   1.295   4.523   2.215 -1.3762 -0.2541 -0.7054
 2950SOL    HW2 8907   1.209   4.412   2.270  0.6272 -0.5953  1.9194
 2951SOL     OW 8908   2.414   3.627   0.705  0.6717 -0.0007  0.1393
 2951SOL    HW1 8909   2.380   3.706   0.746  0.8483 -0.3787  1.0216
 2951SOL    HW2 8910   2.509   3.642   0.700  0.7129 -0.1873  0.3706
 2952SOL     OW 8911   0.535   2.419   1.999  0.9791  0.3096 -0.2065
 2952SOL    HW1 8912   0.580   2.482   1.944 -1.4157  0.7648 -1.8132
 2952SOL    HW2 8913   0.472   2.471   2.049  2.2603 -0.2643  2.1547
 2953SOL     OW 8914   1.611   2.086   2.224 -0.1037 -0.0094 -0.5179
 2953SOL    HW1 8915   1.556   2.108   2.149 -1.7348 -1.8814  0.0494
 2953SOL    HW2 8916   1.695   2.062   2.185 -0.7770 -0.5100 -1.7237
 2954SOL     OW 8917   4.869   0.972   0.162  0.1812  0.4952  0.9174
 2954SOL    HW1 8918   4.779   0.939   0.164 -0.0057  0.7656 -0.9501
 2954SOL    HW2 8919   4.901   0.960   0.251 -1.6649  0.2886  1.5946
 2955SOL     OW 8920   1.488   0.205   1.921 -0.1015 -0.1973  0.1213
 2955SOL    HW1 8921   1.458   0.114   1.929  3.6216 -1.6258 -0.0308
 2955SOL    HW2 8922   1.575   0.205   1.962  1.1273  2.6626 -2.1423
 2956SOL     OW 8923   3.881   2.555   1.461  0.1283 -0.0785 -0.5085
 2956SOL    HW1 8924   3.974   2.571   1.443  0.3916 -1.2669 -0.2669
 2956SOL    HW2 8925   3.880   2.518   1.549 -0.5573 -0.2295 -0.5785
 2957SOL     OW 8926   4.321   4.140   3.785 -0.0764 -0.1002 -0.4300
 2957SOL    HW1 8927   4.349   4.223   3.746 -0.9346  0.1924 -0.4425
 2957SOL    HW2 8928   4.271   4.096   3.716  1.1715 -1.0717 -0.7465
 2958SOL     OW 8929   4.622   2.854   2.032 -0.5052 -0.0958 -0.4032
 2958SOL    HW1 8930   4.660   2.766   2.035 -1.8193 -0.6752  0.2293
 2958SOL    HW2 8931   4.653   2.897   2.112 -0.4727 -0.2522 -0.3319
 2959SOL     OW 8932   0.999   2.115   4.545 -0.3506  0.1980  0.0561
 2959SOL    HW1 8933   0.924   2.131   4.487  0.2555 -0.2539 -0.8793
 2959SOL    HW2 8934   1.005   2.019   4.548  1.5099  0.1936 -1.6762
 2960SOL     OW 8935   1.404   1.623   3.961 -0.7294 -0.1997  0.9640
 2960SOL    HW1 8936   1.327   1.589   4.006 -0.9460  0.2390  0.9297
 2960SOL    HW2 8937   1.465   1.549   3.958 -1.2723 -0.6402  0.6975
 2961SOL     OW 8938   4.185   0.929   0.085  0.0864 -0.6782  0.7449
 2961SOL    HW1 8939   4.143   1.007   0.049  1.2077  0.3731  1.6149
 2961SOL    HW2 8940   4.114   0.866   0.096 -0.7312 -0.0354 -0.6143
 2962SOL     OW 8941   4.525   4.139   0.058 -0.0419 -0.4279  0.0428
 2962SOL    HW1 8942   4.526   4.142  -0.038  0.4402 -0.9699  0.0235
 2962SOL    HW2 8943   4.480   4.219   0.084  1.7964  0.8871 -0.5885
 2963SOL     OW 8944   3.782   2.406   2.579 -0.0286 -0.9750  0.0138
 2963SOL    HW1 8945   3.859   2.351   2.566 -0.9663 -2.0725 -1.2781
 2963SOL    HW2 8946   3.814   2.481   2.629  1.8978 -1.3374 -0.5673
 2964SOL     OW 8947   0.559   4.281   3.316 -0.2278  0.5199  0.0547
 2964SOL    HW1 8948   0.550   4.362   3.366  0.2855 -0.3823  1.7049
 2964SOL    HW2 8949   0.506   4.295   3.237 -1.6543  1.7872  1.1652
 2965SOL     OW 8950   0.669   3.822   4.162 -0.6422 -0.3467  0.2411
 2965SOL    HW1 8951   0.707   3.871   4.235 -2.5669  1.1292  0.3292
 2965SOL    HW2 8952   0.623   3.749   4.203 -0.5771 -0.3043  0.3880
 2966SOL     OW 8953   1.013   4.691   3.653 -0.2153  0.1443  0.2892
 2966SOL    HW1 8954   0.920   4.671   3.641  0.0688 -1.8817  1.0093
 2966SOL    HW2 8955   1.046   4.618   3.705  1.8489  0.6653 -0.2134
 2967SOL     OW 8956   4.492   0.335   4.628  0.2686 -0.3265  0.2670
 2967SOL    HW1 8957   4.410   0.287   4.638  0.7033 -1.0134  0.5793
 2967SOL    HW2 8958   4.533   0.296   4.551  0.3589 -0.0665  0.1835
 2968SOL     OW 8959   0.341   2.602   3.470 -0.6502  0.3909 -0.5676
 2968SOL    HW1 8960   0.357   2.696   3.481 -1.2596  0.3990  0.3195
 2968SOL    HW2 8961   0.274   2.598   3.402 -0.2468  0.5606 -0.9889
 2969SOL     OW 8962   3.401   4.391   2.252  0.5169  0.0024  0.0731
 2969SOL    HW1 8963   3.345   4.437   2.315  0.9174  0.4660  0.0954
 2969SOL    HW2 8964   3.484   4.379   2.298  1.2320  1.4246 -0.7533
 2970SOL     OW 8965   4.524   3.150   3.144 -0.4408 -0.1103 -0.6724
 2970SOL    HW1 8966   4.539   3.175   3.235  0.3015 -0.4088 -0.7042
 2970SOL    HW2 8967   4.561   3.062   3.138  0.5947  0.3672 -1.5540
 2971SOL     OW 8968   4.905   4.732   0.649  0.2916 -0.0012 -0.1022
 2971SOL    HW1 8969   4.872   4.643   0.659  0.9563 -0.1935  0.4432
 2971SOL    HW2 8970   4.879   4.758   0.561 -1.1515 -0.2034  0.2317
 2972SOL     OW 8971   2.935   4.253   4.701  0.0054 -0.0012 -0.5571
 2972SOL    HW1 8972   3.023   4.233   4.733  0.0410 -1.0736 -1.2726
 2972SOL    HW2 8973   2.877   4.200   4.755 -0.3262  1.4421  0.5821
 2973SOL     OW 8974   5.002   1.225   0.060 -0.0057 -0.1913  0.1167
 2973SOL    HW1 8975   4.946   1.155   0.093  1.4972 -0.7744  1.5527
 2973SOL    HW2 8976   4.940   1.291   0.027 -1.6156 -0.3233  2.5649
 2974SOL     OW 8977   2.180   4.919   2.575 -0.1989 -0.2780  0.6214
 2974SOL    HW1 8978   2.171   4.827   2.553 -0.5929 -0.0718 -0.1215
 2974SOL    HW2 8979   2.272   4.929   2.598  0.1387 -0.6253 -0.4768
 2975SOL     OW 8980   0.287   1.560   3.798  0.4207 -0.0889 -0.1158
 2975SOL    HW1 8981   0.262   1.469   3.786 -0.0354  0.1875 -1.3952
 2975SOL    HW2 8982   0.249   1.584   3.883  0.8840 -1.1770  0.4275
 2976SOL     OW 8983   2.365   0.143   4.055  0.6422  0.2288  0.2589
 2976SOL    HW1 8984   2.320   0.195   4.121 -1.4003 -1.0176 -0.0870
 2976SOL    HW2 8985   2.300   0.128   3.987  1.3606 -2.1053 -0.0056
 2977SOL     OW 8986   4.657   1.306   1.016  0.0331 -0.0956 -0.4434
 2977SOL    HW1 8987   4.740   1.354   1.008 -0.4580  1.1309  1.1862
 2977SOL    HW2 8988   4.590   1.372   1.000 -0.6892  0.1799  2.9707
 2978SOL     OW 8989   1.036   3.849   0.009 -0.3035 -0.2485  0.0069
 2978SOL    HW1 8990   1.109   3.787   0.003 -0.5383 -0.4897 -0.4299
 2978SOL    HW2 8991   0.958   3.793   0.009 -0.4639 -0.0623  1.6293
 2979SOL     OW 8992   1.002   1.352   4.212 -0.2755 -0.2094  0.3448
 2979SOL    HW1 8993   0.983   1.390   4.126  3.4910 -1.0577 -1.0691
 2979SOL    HW2 8994   0.937   1.391   4.271 -1.4670  2.3163 -2.3926
 2980SOL     OW 8995   0.374   4.898   1.872  0.1192 -0.2378 -0.1106
 2980SOL    HW1 8996   0.457   4.876   1.829 -1.9808 -2.9921 -3.2659
 2980SOL    HW2 8997   0.338   4.969   1.820  0.1142  0.4120  0.7619
 2981SOL     OW 8998   3.005   2.639   1.685  0.6148 -0.0505  0.3837
 2981SOL    HW1 8999   3.098   2.655   1.667  0.7014 -1.4476 -0.5821
 2981SOL    HW2 9000   3.002   2.549   1.718 -0.3837  0.0449  0.5883
 2982SOL     OW 9001   4.545   4.723   4.266 -0.3167  0.0017 -0.3257
 2982SOL    HW1 9002   4.582   4.735   4.179  0.5362 -0.0833  0.0123
 2982SOL    HW2 9003   4.556   4.808   4.309 -0.7615  0.0520 -0.3037
 2983SOL     OW 9004   4.666   0.745   2.388 -0.4197  0.2614 -0.1542
 2983SOL    HW1 9005   4.704   0.721   2.303 -1.4336  0.6789 -0.7389
 2983SOL    HW2 9006   4.576   0.714   2.384 -0.0323 -1.2404  1.4411
 2984SOL     OW 9007   0.392   4.814   3.951  0.2556 -0.1900 -0.3967
 2984SOL    HW1 9008   0.409   4.873   3.878  1.7709  0.4912  0.4552
 2984SOL    HW2 9009   0.477   4.775   3.971 -0.7553 -3.1356 -1.2412
 2985SOL     OW 9010   1.910   4.295   1.887 -0.1013  0.1437 -0.1728
 2985SOL    HW1 9011   1.850   4.314   1.815 -0.4946  2.2365  0.6434
 2985SOL    HW2 9012   1.872   4.340   1.962  2.4750  1.5534  0.3967
 2986SOL     OW 9013   0.814   1.772   3.005 -0.5329 -0.5245  0.0079
 2986SOL    HW1 9014   0.752   1.774   2.933 -0.1690 -0.0396 -0.2988
 2986SOL    HW2 9015   0.801   1.856   3.050 -1.2045 -1.0829  0.8975
 2987SOL     OW 9016   1.819   2.311   2.120  0.0705  0.0505  0.6409
 2987SOL    HW1 9017   1.842   2.274   2.205 -0.1309  1.1873  1.2061
 2987SOL    HW2 9018   1.819   2.406   2.134 -0.0351  0.2519 -0.6089
 2988SOL     OW 9019   4.623   1.241   4.605  0.0659  0.2123 -0.1198
 2988SOL    HW1 9020   4.694   1.193   4.647  1.2300  1.7920 -0.2002
 2988SOL    HW2 9021   4.610   1.318   4.661 -1.4129  0.0917 -0.2591
 2989SOL     OW 9022   1.015   4.709   1.845  0.1720 -0.4776  0.6509
 2989SOL    HW1 9023   0.977   4.633   1.888 -1.1717 -1.0085 -1.3665
 2989SOL    HW2 9024   0.947   4.776   1.848  1.1610  0.5522  1.9521
 2990SOL     OW 9025   0.475   2.323   0.379 -0.3945  0.0997  0.0036
 2990SOL    HW1 9026   0.498   2.416   0.381  0.3526 -0.0891  0.3091
 2990SOL    HW2 9027   0.551   2.279   0.342  0.1778 -0.6285  1.8888
 2991SOL     OW 9028   2.748   0.643   4.374 -0.2291  0.2352 -0.0734
 2991SOL    HW1 9029   2.832   0.680   4.348  0.2670  0.2728  1.5199
 2991SOL    HW2 9030   2.692   0.719   4.388  0.2039  0.3291  1.2442
 2992SOL     OW 9031   4.851   2.352   3.708  0.5586  0.4683 -0.0062
 2992SOL    HW1 9032   4.790   2.426   3.713  0.6058  0.4187  1.6418
 2992SOL    HW2 9033   4.839   2.318   3.619 -2.3210  0.0499  0.4435
 2993SOL     OW 9034   3.825   1.217   1.272 -0.3682  0.4488  0.2886
 2993SOL    HW1 9035   3.897   1.226   1.209 -0.0152  1.2356  0.7947
 2993SOL    HW2 9036   3.746   1.213   1.217  0.0143  0.0621 -0.2469
 2994SOL     OW 9037   3.968   2.777   2.196  0.9134  1.0792 -0.3544
 2994SOL    HW1 9038   3.959   2.756   2.103  1.0393  1.3008 -0.4179
 2994SOL    HW2 9039   3.989   2.694   2.238  0.8349  0.9749 -0.5213
 2995SOL     OW 9040   3.540   4.743   2.527  0.2051  0.1448 -0.1788
 2995SOL    HW1 9041   3.456   4.721   2.487 -0.2350  0.1317  0.7421
 2995SOL    HW2 9042   3.521   4.755   2.619  1.5574 -1.9772  0.4573
 2996SOL     OW 9043   3.415   3.065   2.087 -0.8191  0.1978 -0.4566
 2996SOL    HW1 9044   3.494   3.065   2.033 -0.0959 -0.3473  0.5705
 2996SOL    HW2 9045   3.393   3.158   2.097  0.3814  0.4308  0.2097
 2997SOL     OW 9046   4.110   4.845   2.026  0.0747 -0.0819 -0.0113
 2997SOL    HW1 9047   4.073   4.757   2.026  1.8734 -0.8882 -0.9633
 2997SOL    HW2 9048   4.194   4.836   1.982  1.4189  1.6472  1.9861
 2998SOL     OW 9049   0.286   1.259   0.670 -0.0824  0.6718 -0.6360
 2998SOL    HW1 9050   0.217   1.256   0.604  0.1443 -0.0541 -0.8434
 2998SOL    HW2 9051   0.277   1.177   0.718 -0.2733  1.2074  0.2692
 2999SOL     OW 9052   4.281   2.797   0.498  0.5092  0.3601  0.2696
 2999SOL    HW1 9053   4.240   2.883   0.504 -0.4840  0.1672 -2.2427
 2999SOL    HW2 9054   4.294   2.784   0.404  1.1717 -2.0034  0.6205
 3000SOL     OW 9055   1.427   0.027   1.181  0.1847  0.1619 -0.2616
 3000SOL    HW1 9056   1.508  -0.020   1.159  0.3423  0.4548 -0.3274
 3000SOL    HW2 9057   1.363  -0.004   1.117  0.0268 -0.6513  0.2751
 3001SOL     OW 9058   0.043   1.951   0.214  0.4718 -0.5168  0.2648
 3001SOL    HW1 9059  -0.003   1.919   0.292  1.0983 -1.4261  0.2662
 3001SOL    HW2 9060   0.040   2.046   0.223  1.0900 -0.6093  1.7323
 3002SOL     OW 9061   2.221   4.043   0.197  0.3961 -0.7237 -0.0122
 3002SOL    HW1 9062   2.172   4.006   0.270 -0.5757 -0.5058 -0.5347
 3002SOL    HW2 9063   2.284   4.103   0.237 -2.9027  2.7377  0.5592
 3003SOL     OW 9064   4.577   2.533   1.776 -0.0862 -0.1645 -0.3801
 3003SOL    HW1 9065   4.671   2.550   1.773 -0.3659  1.9415  1.0336
 3003SOL    HW2 9066   4.570   2.443   1.807  1.4688 -0.0720  0.3142
 3004SOL     OW 9067   4.190   1.370   0.006 -0.1548  0.5690  0.0992
 3004SOL    HW1 9068   4.282   1.394  -0.003  0.5896 -1.6780  1.0431
 3004SOL    HW2 9069   4.171   1.382   0.099 -1.5549  3.1835 -0.4281
 3005SOL     OW 9070   0.822   1.104   1.526  0.5124 -0.4741 -0.6414
 3005SOL    HW1 9071   0.874   1.174   1.487 -0.9426  1.2872  0.4099
 3005SOL    HW2 9072   0.803   1.044   1.454 -1.3209  2.1757 -2.5191
 3006SOL     OW 9073   1.511   4.159   1.170  0.6774 -0.2212 -0.1873
 3006SOL    HW1 9074   1.471   4.072   1.164  0.9261 -0.2748 -1.1774
 3006SOL    HW2 9075   1.528   4.185   1.079 -3.3569  2.7335 -0.3541
 3007SOL     OW 9076   3.210   2.653   1.890  0.0764 -0.2676  0.0345
 3007SOL    HW1 9077   3.154   2.623   1.961 -1.6601 -0.3806 -1.3031
 3007SOL    HW2 9078   3.286   2.594   1.893  0.8207  0.6804  2.6691
 3008SOL     OW 9079   1.450   0.766   3.804  0.8249 -0.0710  0.6565
 3008SOL    HW1 9080   1.355   0.754   3.813  0.7447 -0.7419 -0.8613
 3008SOL    HW2 9081   1.487   0.681   3.826  0.9312 -0.3614 -0.5932
 3009SOL     OW 9082   2.998   4.207   0.719  0.0998  0.1005  0.3148
 3009SOL    HW1 9083   2.973   4.266   0.648  0.6048  0.4017  0.3731
 3009SOL    HW2 9084   2.935   4.226   0.789  1.0811  1.6316  0.8626
 3010SOL     OW 9085   3.380   0.734   1.780 -0.4801  0.2843 -0.3445
 3010SOL    HW1 9086   3.322   0.658   1.773 -0.0793 -0.5217  3.1463
 3010SOL    HW2 9087   3.333   0.794   1.838  1.7804 -0.1585  2.1211
 3011SOL     OW 9088   4.066   4.898   4.601 -0.0096  0.3303 -0.0967
 3011SOL    HW1 9089   4.121   4.971   4.632 -1.5203  1.8249 -0.7866
 3011SOL    HW2 9090   4.034   4.927   4.516 -0.9487 -1.0015 -0.2212
 3012SOL     OW 9091   4.327   2.430   4.044  0.0348 -0.1253 -0.1074
 3012SOL    HW1 9092   4.372   2.514   4.048 -1.0407  0.6570 -2.5377
 3012SOL    HW2 9093   4.390   2.371   4.001  0.4470 -0.3250  0.7594
 3013SOL     OW 9094   3.475   3.734   1.260 -0.0432  0.0179  0.2687
 3013SOL    HW1 9095   3.533   3.658   1.261 -0.1380 -0.0633 -0.1533
 3013SOL    HW2 9096   3.388   3.698   1.243  0.0107  0.2730 -0.6293
 3014SOL     OW 9097   0.515   4.897   4.624 -0.1995 -0.3008  0.2913
 3014SOL    HW1 9098   0.607   4.877   4.609  0.0188  1.1079 -0.4464
 3014SOL    HW2 9099   0.468   4.843   4.561  0.2250 -0.0687 -0.2346
 3015SOL     OW 9100   2.854   0.978   1.775 -0.3421 -0.6685  0.5637
 3015SOL    HW1 9101   2.828   0.890   1.802 -2.6282 -0.0745  0.4317
 3015SOL    HW2 9102   2.784   1.034   1.805  1.2555  1.2114  0.9830
 3016SOL     OW 9103   3.997   3.358   3.491 -0.5046 -0.1299 -0.3468
 3016SOL    HW1 9104   4.091   3.343   3.498 -0.7115 -1.3205  0.0731
 3016SOL    HW2 9105   3.987   3.414   3.413  0.4994 -0.3847 -0.6686
 3017SOL     OW 9106   1.834   4.561   1.007 -0.2656 -0.2965 -0.2466
 3017SOL    HW1 9107   1.821   4.484   0.952 -1.0675  0.2577 -0.8549
 3017SOL    HW2 9108   1.898   4.615   0.960  0.0668 -0.4468  0.0295
 3018SOL     OW 9109   3.028   1.603   2.861  0.1701 -0.4509 -0.4341
 3018SOL    HW1 9110   3.071   1.603   2.947 -0.6305 -0.5024 -0.0215
 3018SOL    HW2 9111   3.000   1.693   2.848  0.5689 -0.3755 -0.7911
 3019SOL     OW 9112   3.087   4.315   2.124  0.0196  0.4017  0.2981
 3019SOL    HW1 9113   3.049   4.401   2.108  1.2646  0.9720  0.2798
 3019SOL    HW2 9114   3.110   4.283   2.037  0.7547  0.6319  0.4013
 3020SOL     OW 9115   3.171   3.687   2.083 -0.4217  0.5004 -0.0087
 3020SOL    HW1 9116   3.163   3.738   2.164 -2.6641  1.1084 -0.5496
 3020SOL    HW2 9117   3.115   3.611   2.096  1.5690 -1.0271  0.1233
 3021SOL     OW 9118   4.192   3.823   4.099 -0.4575 -0.4272  0.3186
 3021SOL    HW1 9119   4.130   3.785   4.161 -0.4044  2.0665  2.0730
 3021SOL    HW2 9120   4.145   3.898   4.062  0.7199  0.1745  0.0002
 3022SOL     OW 9121   1.515   0.296   0.757  0.5458  0.1176 -0.3148
 3022SOL    HW1 9122   1.431   0.288   0.802  1.4940 -1.5119  1.2930
 3022SOL    HW2 9123   1.573   0.338   0.821  1.1855  0.4244 -1.0768
 3023SOL     OW 9124   4.169   1.766   4.886 -0.3860 -0.1586 -0.5475
 3023SOL    HW1 9125   4.136   1.762   4.796 -1.1017  0.9931 -0.3516
 3023SOL    HW2 9126   4.263   1.783   4.876 -0.7983  2.1263 -1.1000
 3024SOL     OW 9127   3.532   2.778   1.476  0.3383  0.2004  0.2962
 3024SOL    HW1 9128   3.463   2.725   1.517 -1.1934  0.9009 -1.2821
 3024SOL    HW2 9129   3.529   2.861   1.522  1.0156 -0.1751  1.0569
 3025SOL     OW 9130   2.828   0.560   0.086  0.2563  0.1878 -0.1041
 3025SOL    HW1 9131   2.777   0.479   0.083  1.0873 -0.4524  1.8678
 3025SOL    HW2 9132   2.901   0.545   0.027 -0.9476  0.5467 -1.7782
 3026SOL     OW 9133   2.168   2.953   3.777 -0.0564 -0.3165 -0.7012
 3026SOL    HW1 9134   2.111   3.030   3.777  0.2101 -0.1158 -1.0794
 3026SOL    HW2 9135   2.162   2.919   3.866 -0.6323 -0.1972 -0.6923
 3027SOL     OW 9136   0.646   4.143   0.767  0.2605 -0.0647  0.0275
 3027SOL    HW1 9137   0.647   4.218   0.707 -0.0270 -0.8366 -0.9702
 3027SOL    HW2 9138   0.635   4.067   0.710  1.2278 -0.9349  0.9563
 3028SOL     OW 9139   1.452   3.087   2.195 -0.4916 -0.2200  0.4312
 3028SOL    HW1 9140   1.532   3.112   2.148  0.4862 -0.3337  1.9353
 3028SOL    HW2 9141   1.389   3.156   2.175 -0.1312 -0.2794 -1.0218
 3029SOL     OW 9142   2.241   0.711   3.596 -0.4379  0.1103  0.1825
 3029SOL    HW1 9143   2.274   0.669   3.517  0.6185  0.0555  0.6265
 3029SOL    HW2 9144   2.195   0.789   3.565 -0.1196  0.0328 -0.4901
 3030SOL     OW 9145   4.793   4.482   2.266 -0.1116  0.1497  0.0411
 3030SOL    HW1 9146   4.787   4.407   2.324 -0.3155 -0.3385 -0.5962
 3030SOL    HW2 9147   4.710   4.528   2.276 -0.0452  0.2059  0.3224
 3031SOL     OW 9148   2.062   2.292   3.200  0.4631  0.0016 -0.7488
 3031SOL    HW1 9149   1.986   2.329   3.156  0.6332  1.2975 -0.0074
 3031SOL    HW2 9150   2.031   2.208   3.234 -0.5041  0.3097 -0.8298
 3032SOL     OW 9151   1.185   3.867   2.084 -0.3365 -0.1180  0.2407
 3032SOL    HW1 9152   1.120   3.797   2.097 -2.3763  1.4134 -1.0215
 3032SOL    HW2 9153   1.145   3.944   2.125  1.2171  0.6642  0.3613
 3033SOL     OW 9154   3.375   3.699   1.666 -0.2539 -0.2127 -0.1653
 3033SOL    HW1 9155   3.426   3.636   1.616  0.4325 -0.7913  1.1877
 3033SOL    HW2 9156   3.376   3.779   1.613  1.1674 -0.5371 -0.6796
 3034SOL     OW 9157   3.031   2.357   2.684  0.8593  0.0648 -0.2499
 3034SOL    HW1 9158   2.990   2.366   2.598  0.7988 -0.6466 -0.3050
 3034SOL    HW2 9159   2.962   2.320   2.740  0.9694  0.2976  0.0465
 3035SOL     OW 9160   3.340   0.671   4.858 -0.3726  0.0413  0.4628
 3035SOL    HW1 9161   3.320   0.757   4.820  0.3677  0.3506  0.7614
 3035SOL    HW2 9162   3.428   0.651   4.827 -0.4199 -0.4709  0.6529
 3036SOL     OW 9163   4.652   2.429   2.200  0.0051 -0.1305 -0.4996
 3036SOL    HW1 9164   4.611   2.515   2.208  1.6575  0.6490 -0.1234
 3036SOL    HW2 9165   4.714   2.438   2.128 -1.4419 -1.7297 -2.0529
 3037SOL     OW 9166   4.405   4.641   3.548 -0.7593 -0.8484  0.6480
 3037SOL    HW1 9167   4.352   4.561   3.547 -0.7515 -0.8503  0.2513
 3037SOL    HW2 9168   4.360   4.699   3.609 -0.5854 -1.2787  1.1871
 3038SOL     OW 9169   1.766   1.737   1.366 -0.5054 -0.0897 -0.3119
 3038SOL    HW1 9170   1.704   1.807   1.385 -1.6732 -1.2427  0.3084
 3038SOL    HW2 9171   1.812   1.723   1.449 -0.9482 -0.6884 -0.1636
 3039SOL     OW 9172   0.949   1.426   1.918 -0.6342  0.0269 -0.1270
 3039SOL    HW1 9173   1.015   1.380   1.866  0.4127  0.5149  0.7310
 3039SOL    HW2 9174   0.999   1.485   1.973 -1.9382  2.9304 -1.8060
 3040SOL     OW 9175   4.422   3.230   0.678 -0.0229  0.8044 -0.0043
 3040SOL    HW1 9176   4.328   3.225   0.693 -0.5823 -1.4306 -3.1492
 3040SOL    HW2 9177   4.431   3.285   0.600  1.1217 -0.1521 -0.5733
 3041SOL     OW 9178   3.320   2.324   2.657 -0.0942  0.5749 -0.1033
 3041SOL    HW1 9179   3.224   2.326   2.654 -0.1123 -0.0087 -0.0296
 3041SOL    HW2 9180   3.342   2.232   2.673  0.4676  0.7899  0.3951
 3042SOL     OW 9181   3.190   3.507   4.384 -0.2226  0.2664 -0.0356
 3042SOL    HW1 9182   3.145   3.516   4.300 -1.8620 -0.2000  0.7498
 3042SOL    HW2 9183   3.135   3.447   4.434  0.6268  0.6786  1.4386
 3043SOL     OW 9184   2.356   0.819   4.590  0.1466  0.1977  0.1176
 3043SOL    HW1 9185   2.315   0.905   4.585 -1.9421 -0.6514  1.1559
 3043SOL    HW2 9186   2.332   0.786   4.677  0.6832 -1.5209 -0.3421
 3044SOL     OW 9187   3.741   2.332   2.281 -0.5855 -0.0645 -0.2220
 3044SOL    HW1 9188   3.748   2.237   2.281 -0.6235 -0.0705  0.2869
 3044SOL    HW2 9189   3.688   2.352   2.359 -0.5338  0.3738 -0.2969
 3045SOL     OW 9190   0.293   4.757   2.531 -0.6404  0.1787  0.4897
 3045SOL    HW1 9191   0.385   4.752   2.504 -1.4818 -0.3588 -2.7615
 3045SOL    HW2 9192   0.285   4.841   2.575  1.1319  0.9205 -0.4996
 3046SOL     OW 9193   4.943   2.338   2.855 -0.0174 -0.0086 -0.3810
 3046SOL    HW1 9194   4.858   2.342   2.898 -0.1437  2.2236 -0.7313
 3046SOL    HW2 9195   4.924   2.358   2.763  0.7933 -0.1718 -0.5923
 3047SOL     OW 9196   0.510   1.314   2.508  0.0975 -0.9957  0.2889
 3047SOL    HW1 9197   0.516   1.362   2.591 -0.0814  0.4253 -0.4888
 3047SOL    HW2 9198   0.417   1.289   2.502 -0.9573  2.6463 -1.4082
 3048SOL     OW 9199   1.840   3.510   4.564  0.1198 -0.0757 -0.4622
 3048SOL    HW1 9200   1.764   3.475   4.611  0.8354 -0.0139  0.7827
 3048SOL    HW2 9201   1.818   3.602   4.547 -1.0706 -0.6305 -2.2758
 3049SOL     OW 9202   0.485   1.635   1.585 -1.0216  0.1698  0.1130
 3049SOL    HW1 9203   0.537   1.715   1.591  0.2671 -0.5875 -0.3753
 3049SOL    HW2 9204   0.504   1.588   1.666  0.6828 -1.0013 -0.8897
 3050SOL     OW 9205   4.324   4.512   2.750  0.5040  0.2061  0.4955
 3050SOL    HW1 9206   4.342   4.458   2.827 -1.8218 -0.9666  0.3077
 3050SOL    HW2 9207   4.270   4.584   2.782  0.3994  0.2956  0.1264
 3051SOL     OW 9208   2.666   0.531   0.807  0.4451  0.3252 -0.2053
 3051SOL    HW1 9209   2.587   0.520   0.754  0.8737  0.3573 -0.8596
 3051SOL    HW2 9210   2.725   0.463   0.777  0.1044 -0.7386  1.3935
 3052SOL     OW 9211   3.258   2.727   0.471 -0.2060  0.3946 -0.0290
 3052SOL    HW1 9212   3.225   2.668   0.538  2.1089  0.7262  1.5327
 3052SOL    HW2 9213   3.196   2.800   0.468 -0.3913  0.3388  1.7424
 3053SOL     OW 9214   4.212   1.736   0.940  1.1565 -0.5075  0.2256
 3053SOL    HW1 9215   4.185   1.709   0.852  3.0017 -0.0892 -0.5233
 3053SOL    HW2 9216   4.194   1.830   0.942  0.3659 -0.6613  0.6054
 3054SOL     OW 9217   1.502   4.455   2.016  0.5159 -0.1338  0.2429
 3054SOL    HW1 9218   1.442   4.395   2.061 -0.9185  0.3461 -0.9682
 3054SOL    HW2 9219   1.510   4.420   1.928 -0.1230  1.2759 -0.3985
 3055SOL     OW 9220   2.208   4.651   4.409  0.2206  0.5941 -0.0933
 3055SOL    HW1 9221   2.129   4.677   4.362 -0.1410  0.7486  0.5932
 3055SOL    HW2 9222   2.179   4.635   4.498  0.1939 -3.1029 -0.6005
 3056SOL     OW 9223   1.548   4.462   4.910 -0.4670 -0.2181  0.1755
 3056SOL    HW1 9224   1.468   4.510   4.933 -0.6414 -0.0417 -0.7579
 3056SOL    HW2 9225   1.534   4.436   4.819  1.1400  1.0552 -0.4756
 3057SOL     OW 9226   1.719   0.944   3.669  0.0994  0.6347  0.4235
 3057SOL    HW1 9227   1.795   0.989   3.632  0.7578 -1.2078 -0.6096
 3057SOL    HW2 9228   1.647   1.008   3.661  1.5185  2.5118  1.6572
 3058SOL     OW 9229   2.839   1.465   4.776 -0.1953  0.4459 -0.4127
 3058SOL    HW1 9230   2.857   1.454   4.682  0.1736 -0.0462 -0.2903
 3058SOL    HW2 9231   2.806   1.380   4.804  1.8881 -0.1888  0.3783
 3059SOL     OW 9232   2.792   3.947   3.636 -0.1884 -0.2930 -0.2751
 3059SOL    HW1 9233   2.869   3.955   3.580 -0.3592 -0.0900 -0.4807
 3059SOL    HW2 9234   2.827   3.918   3.721  0.1621  0.2411 -0.2314
 3060SOL     OW 9235   0.958   4.773   0.609 -0.0613  0.3136  0.7565
 3060SOL    HW1 9236   0.964   4.868   0.602  2.8395  0.1104 -1.3558
 3060SOL    HW2 9237   1.040   4.741   0.571 -0.4463 -3.0221  2.3641
 3061SOL     OW 9238   1.920   1.169   2.990 -0.1017  0.3787  0.3457
 3061SOL    HW1 9239   1.929   1.074   2.998  1.8371  0.2733 -1.9617
 3061SOL    HW2 9240   2.001   1.204   3.027  0.2657  0.9226 -0.8994
 3062SOL     OW 9241   3.965   1.703   4.676 -0.0437  0.0410  0.6978
 3062SOL    HW1 9242   3.964   1.659   4.591 -1.2515  0.2159  0.5961
 3062SOL    HW2 9243   3.983   1.795   4.656  1.2484 -0.1811  0.7926
 3063SOL     OW 9244   4.122   0.611   0.298 -0.0019 -0.5882  0.2736
 3063SOL    HW1 9245   4.117   0.590   0.391  0.6406 -1.3083  0.1585
 3063SOL    HW2 9246   4.108   0.528   0.254  0.0200 -0.3109 -0.2659
 3064SOL     OW 9247   3.509   2.119   1.757  0.1620  0.9615  0.2824
 3064SOL    HW1 9248   3.588   2.159   1.723  0.0766  1.2423  0.4077
 3064SOL    HW2 9249   3.466   2.080   1.681  1.4184 -0.9550  0.4991
 3065SOL     OW 9250   2.205   1.350   2.228 -0.0249  0.4527 -0.0107
 3065SOL    HW1 9251   2.160   1.290   2.168 -0.7664 -0.2273  1.1760
 3065SOL    HW2 9252   2.263   1.292   2.279 -1.0155  0.6568  1.3999
 3066SOL     OW 9253   2.930   0.941   2.466  0.0404 -0.3038 -0.3345
 3066SOL    HW1 9254   2.966   1.018   2.511  2.3211 -2.4519  1.8034
 3066SOL    HW2 9255   2.911   0.972   2.377  0.3015  2.8248  0.5707
 3067SOL     OW 9256   3.279   2.696   0.806  0.4552 -0.0360 -0.2017
 3067SOL    HW1 9257   3.269   2.687   0.901  3.1700  1.5527  0.3398
 3067SOL    HW2 9258   3.204   2.748   0.779  0.0397  0.1456  1.2005
 3068SOL     OW 9259   3.224   0.689   2.655  0.8244  0.4972  0.7471
 3068SOL    HW1 9260   3.133   0.667   2.674  0.0029  2.6273 -0.3505
 3068SOL    HW2 9261   3.273   0.656   2.730 -0.4558 -2.7990  0.3009
 3069SOL     OW 9262   4.194   2.682   1.237  0.6821 -0.5075 -0.6311
 3069SOL    HW1 9263   4.164   2.715   1.322 -0.3573 -0.8803 -0.8361
 3069SOL    HW2 9264   4.269   2.736   1.215  0.1230  0.5004 -0.1169
 3070SOL     OW 9265   1.306   3.976   1.504 -0.1247  0.3852 -0.0643
 3070SOL    HW1 9266   1.253   3.900   1.481 -0.7545  0.7207  0.2556
 3070SOL    HW2 9267   1.391   3.939   1.529  0.3515 -0.0582 -2.1378
 3071SOL     OW 9268   3.142   0.772   1.246 -0.3279  0.1491 -0.2631
 3071SOL    HW1 9269   3.211   0.804   1.188 -0.0910 -0.2324 -0.1954
 3071SOL    HW2 9270   3.155   0.821   1.328  1.0654 -1.2614  0.4112
 3072SOL     OW 9271   1.843   1.994   4.080 -0.0076 -0.4285 -0.1043
 3072SOL    HW1 9272   1.829   1.977   3.987  1.1660 -0.3578 -0.3169
 3072SOL    HW2 9273   1.866   1.909   4.117 -1.9550 -0.7584  0.4547
 3073SOL     OW 9274   1.139   1.491   0.897 -0.5918  0.4094 -0.6568
 3073SOL    HW1 9275   1.105   1.565   0.848 -2.6203  0.0965  0.2166
 3073SOL    HW2 9276   1.226   1.519   0.925 -0.9780  2.1070 -1.0589
 3074SOL     OW 9277   2.322   2.035   4.816  0.4978 -0.1516  0.2389
 3074SOL    HW1 9278   2.361   2.048   4.730  0.2846 -1.8852 -0.1520
 3074SOL    HW2 9279   2.282   2.119   4.837  2.0577  0.8292 -0.5602
 3075SOL     OW 9280   1.351   3.833   0.798  0.4367  0.2268  0.4454
 3075SOL    HW1 9281   1.431   3.804   0.841  0.7222 -0.7023 -0.6596
 3075SOL    HW2 9282   1.310   3.752   0.768 -0.1743  0.8003 -0.2863
 3076SOL     OW 9283   2.244   1.758   1.286  0.5146  0.5468  0.4299
 3076SOL    HW1 9284   2.208   1.841   1.316  0.1354  1.2168 -1.7201
 3076SOL    HW2 9285   2.167   1.702   1.273  0.6704  0.2776  0.6412
 3077SOL     OW 9286   2.426   1.104   0.465  0.5563  0.5604  0.6084
 3077SOL    HW1 9287   2.431   1.086   0.559  0.4720  0.2885  0.5626
 3077SOL    HW2 9288   2.351   1.163   0.456 -0.1077 -0.2549  0.5980
 3078SOL     OW 9289   3.197   0.957   1.833  0.2381 -0.2709  0.3927
 3078SOL    HW1 9290   3.120   0.930   1.781  0.2662  0.9841 -0.3428
 3078SOL    HW2 9291   3.172   0.941   1.924  0.2935 -2.8181  0.0310
 3079SOL     OW 9292   3.711   3.794   4.555 -0.2311  0.1218 -0.1721
 3079SOL    HW1 9293   3.751   3.708   4.548 -0.6297 -0.0939  0.1265
 3079SOL    HW2 9294   3.699   3.823   4.465  1.9929  0.8668 -0.2992
 3080SOL     OW 9295   4.684   2.925   2.281 -0.4615 -0.5784  0.1270
 3080SOL    HW1 9296   4.628   2.848   2.290 -1.0294 -0.2119 -0.1755
 3080SOL    HW2 9297   4.763   2.904   2.331 -2.6441  0.6793  4.6463
 3081SOL     OW 9298   1.268   4.211   0.826  0.4347 -0.2285  0.2565
 3081SOL    HW1 9299   1.248   4.130   0.873 -1.1023 -1.4213 -2.2134
 3081SOL    HW2 9300   1.184   4.255   0.817  0.8538  0.4441 -0.4866
 3082SOL     OW 9301   0.077   4.279   0.966 -0.0573 -0.0118  0.3104
 3082SOL    HW1 9302   0.039   4.333   1.036 -0.2799  0.9905 -0.5467
 3082SOL    HW2 9303   0.112   4.203   1.010  0.4004  0.9188  1.6027
 3083SOL     OW 9304   1.414   3.145   3.803  0.6930  0.2323 -0.0011
 3083SOL    HW1 9305   1.463   3.084   3.860  1.2459 -0.5091 -1.2188
 3083SOL    HW2 9306   1.330   3.102   3.790  0.3476  0.6820  0.7113
 3084SOL     OW 9307   4.072   0.093   2.564 -0.5704 -0.5408 -0.0277
 3084SOL    HW1 9308   4.067   0.131   2.476 -2.9259  1.9876  1.0216
 3084SOL    HW2 9309   4.092   0.168   2.621 -0.1258 -1.9108  1.6896
 3085SOL     OW 9310   2.643   0.489   4.194  0.2084  0.0740 -0.0605
 3085SOL    HW1 9311   2.674   0.401   4.215  0.7082  0.5599  1.4101
 3085SOL    HW2 9312   2.678   0.544   4.265  0.5379  1.5885 -1.3370
 3086SOL     OW 9313   4.551   1.156   3.210 -0.5943  0.6088 -0.0817
 3086SOL    HW1 9314   4.544   1.063   3.188 -1.4680  0.1755  1.8729
 3086SOL    HW2 9315   4.635   1.183   3.171 -0.4414 -0.9096 -0.8928
 3087SOL     OW 9316   3.353   4.136   2.938 -0.2386  0.1652  0.3034
 3087SOL    HW1 9317   3.350   4.204   2.871 -0.0517  0.6416  0.7756
 3087SOL    HW2 9318   3.275   4.083   2.921  0.2097 -0.1844 -0.7721
 3088SOL     OW 9319   0.554   4.107   0.213 -0.2526  0.6181 -0.1612
 3088SOL    HW1 9320   0.495   4.068   0.278 -2.4295  1.2980 -1.5794
 3088SOL    HW2 9321   0.571   4.035   0.152  1.0516  0.2206  0.6475
 3089SOL     OW 9322   3.245   1.637   4.647  0.0774 -0.0358  0.4164
 3089SOL    HW1 9323   3.331   1.674   4.668 -0.0602  1.3157 -1.1817
 3089SOL    HW2 9324   3.187   1.671   4.716  0.6457 -0.2466  1.0092
 3090SOL     OW 9325   4.815   2.648   0.754  0.0582  0.1220  0.6478
 3090SOL    HW1 9326   4.797   2.660   0.847  0.4041  0.2841  0.6942
 3090SOL    HW2 9327   4.879   2.576   0.752  0.6692  0.6643  0.5858
 3091SOL     OW 9328   1.504   3.769   3.339  0.2714  0.0588  0.0671
 3091SOL    HW1 9329   1.568   3.835   3.364  0.8063 -0.1983 -0.5810
 3091SOL    HW2 9330   1.533   3.739   3.253  0.6280 -1.7492  0.7739
 3092SOL     OW 9331   0.929   0.385   0.579  0.0187  0.2756 -0.3277
 3092SOL    HW1 9332   0.881   0.430   0.510 -0.6694  2.3119  1.3701
 3092SOL    HW2 9333   0.944   0.452   0.646  1.9432 -1.2282  0.8812
 3093SOL     OW 9334   3.301   2.120   2.044 -0.9582 -0.2813  0.1625
 3093SOL    HW1 9335   3.385   2.137   2.087 -0.6192  0.8563 -0.8981
 3093SOL    HW2 9336   3.268   2.041   2.087  0.2414 -0.2590  1.1920
 3094SOL     OW 9337   2.592   0.750   1.415  0.0816 -0.1571 -0.7705
 3094SOL    HW1 9338   2.519   0.786   1.364  0.1065  1.2203  0.1195
 3094SOL    HW2 9339   2.553   0.726   1.499  0.0059 -2.5836 -1.4348
 3095SOL     OW 9340   4.917   0.050   2.785  0.6220 -0.2745  0.2645
 3095SOL    HW1 9341   4.960  -0.035   2.785  1.3590  0.0868 -0.3975
 3095SOL    HW2 9342   4.938   0.088   2.699 -0.0678  0.3893  0.3723
 3096SOL     OW 9343   1.912   1.775   1.967  0.2530  0.0283 -0.3830
 3096SOL    HW1 9344   1.894   1.834   2.040 -0.7002 -1.6839  0.8392
 3096SOL    HW2 9345   1.959   1.701   2.006 -0.1029 -0.8329 -1.5146
 3097SOL     OW 9346   0.257   4.407   3.782 -0.3008 -0.1643  0.6184
 3097SOL    HW1 9347   0.212   4.459   3.715 -1.3026  0.0092  1.3857
 3097SOL    HW2 9348   0.213   4.322   3.779  1.1511 -0.9172 -0.4459
 3098SOL     OW 9349   3.551   2.820   1.962  0.4181  0.1584 -0.4733
 3098SOL    HW1 9350   3.484   2.778   2.016 -0.3108  0.3873 -1.1648
 3098SOL    HW2 9351   3.620   2.844   2.023  1.4774 -3.1447 -0.1841
 3099SOL     OW 9352   4.032   1.021   2.365  0.1113  0.3918 -0.5871
 3099SOL    HW1 9353   3.957   1.012   2.424  0.4532  2.2638  0.1926
 3099SOL    HW2 9354   4.063   0.931   2.352 -1.1757 -0.2420  0.4874
 3100SOL     OW 9355   1.473   3.877   3.876  0.3617 -0.5417 -0.3246
 3100SOL    HW1 9356   1.497   3.785   3.892  1.3921  0.0143  1.6090
 3100SOL    HW2 9357   1.433   3.906   3.958  0.2013  0.7952 -0.8534
 3101SOL     OW 9358   3.759   2.938   4.864  0.0375 -0.0128  0.4433
 3101SOL    HW1 9359   3.738   2.873   4.932  1.5826  0.1470  1.1178
 3101SOL    HW2 9360   3.842   2.975   4.892  0.2985  0.6519 -1.1304
 3102SOL     OW 9361   1.765   4.993   3.218 -0.0249 -0.0619 -0.6848
 3102SOL    HW1 9362   1.690   5.006   3.159  0.4431 -0.1566 -1.3071
 3102SOL    HW2 9363   1.757   4.901   3.245  0.5790 -0.4477 -1.7652
 3103SOL     OW 9364   3.660   3.621   3.968  0.1272 -0.2706 -0.0161
 3103SOL    HW1 9365   3.745   3.577   3.970  0.4120  0.2868  0.7641
 3103SOL    HW2 9366   3.597   3.549   3.962  0.5282 -0.9407  2.3448
 3104SOL     OW 9367   1.057   1.662   3.038  0.0924  0.3403  0.0342
 3104SOL    HW1 9368   0.972   1.695   3.011 -0.5154 -0.1777  1.2228
 3104SOL    HW2 9369   1.109   1.740   3.058  0.2157  0.6874 -1.5370
 3105SOL     OW 9370   4.717   1.053   1.468 -0.1985  0.0476 -0.2697
 3105SOL    HW1 9371   4.808   1.079   1.458  0.3307 -1.3193  0.7519
 3105SOL    HW2 9372   4.669   1.111   1.408  1.3835  0.4192 -1.2285
 3106SOL     OW 9373   4.847   4.572   2.779  0.2342  0.2022  0.0035
 3106SOL    HW1 9374   4.862   4.574   2.684 -2.0187  2.6136 -0.4309
 3106SOL    HW2 9375   4.752   4.560   2.787  0.3307  0.5171  1.9303
 3107SOL     OW 9376   3.726   1.376   3.350  0.6794  0.2893  0.3062
 3107SOL    HW1 9377   3.794   1.418   3.297  2.1977 -0.7921  1.2997
 3107SOL    HW2 9378   3.662   1.445   3.367  0.3518  0.7787 -2.5157
 3108SOL     OW 9379   0.359   2.362   1.515  0.0523 -0.4148 -0.3964
 3108SOL    HW1 9380   0.344   2.430   1.581  0.8770 -0.6678  0.0655
 3108SOL    HW2 9381   0.414   2.297   1.558  1.0820 -0.3147 -1.4838
 3109SOL     OW 9382   3.257   4.557   3.400 -0.5502 -0.2534 -0.7937
 3109SOL    HW1 9383   3.269   4.649   3.423 -0.9469 -0.5090  0.5762
 3109SOL    HW2 9384   3.249   4.513   3.485  0.0946 -1.6164 -1.4213
 3110SOL     OW 9385   4.298   3.657   2.075  0.5218  0.2479  0.2028
 3110SOL    HW1 9386   4.248   3.615   2.145  1.7117 -0.4174  0.6714
 3110SOL    HW2 9387   4.318   3.744   2.107  1.3725 -0.1782  0.8601
 3111SOL     OW 9388   3.767   0.096   1.309  0.4480 -0.1467  0.5680
 3111SOL    HW1 9389   3.735   0.063   1.392  1.0909 -1.1857  0.4264
 3111SOL    HW2 9390   3.755   0.023   1.248 -1.7475  1.2020 -0.7276
 3112SOL     OW 9391   4.823   0.701   2.180 -0.1782  0.5179  0.1419
 3112SOL    HW1 9392   4.778   0.618   2.164  0.3234 -0.1444  1.9571
 3112SOL    HW2 9393   4.902   0.696   2.126  0.3063 -0.6269  0.8918
 3113SOL     OW 9394   1.004   2.653   0.237 -0.0738 -0.2555 -0.0296
 3113SOL    HW1 9395   1.010   2.691   0.324 -1.8874 -0.9554  0.4614
 3113SOL    HW2 9396   0.939   2.707   0.192  0.3307 -0.3295 -0.7105
 3114SOL     OW 9397   0.610   2.020   2.374  0.3028  0.0716 -0.1865
 3114SOL    HW1 9398   0.570   1.956   2.315 -1.6578  0.1637  0.9623
 3114SOL    HW2 9399   0.695   1.982   2.395  0.8730 -0.2029 -2.6115
 3115SOL     OW 9400   3.303   3.336   0.215  0.2335  0.8872  0.3030
 3115SOL    HW1 9401   3.369   3.374   0.273  1.0712  1.7511 -1.1616
 3115SOL    HW2 9402   3.345   3.334   0.129 -1.4298  0.8696 -0.5515
 3116SOL     OW 9403   3.930   2.902   0.380  0.5459 -0.3426  0.5164
 3116SOL    HW1 9404   3.973   2.958   0.315  1.9297  0.1767  1.7925
 3116SOL    HW2 9405   3.948   2.813   0.351  1.0226 -0.1221  0.1183
 3117SOL     OW 9406   4.188   0.941   1.446  0.2818 -0.0736 -0.2194
 3117SOL    HW1 9407   4.153   0.856   1.423 -0.1886  0.4999 -1.7397
 3117SOL    HW2 9408   4.111   0.995   1.466  0.5297  0.1817  0.0680
 3118SOL     OW 9409   3.649   2.852   3.188 -0.3129  0.1585 -0.5052
 3118SOL    HW1 9410   3.719   2.915   3.206 -1.6201  1.2994  0.8591
 3118SOL    HW2 9411   3.569   2.904   3.190 -1.2579 -1.2154 -1.4611
 3119SOL     OW 9412   2.510   4.509   4.681  0.6162  0.2981 -0.3631
 3119SOL    HW1 9413   2.572   4.526   4.609  1.9360  2.1215  1.1177
 3119SOL    HW2 9414   2.463   4.591   4.692 -0.8469 -0.5224 -0.2703
 3120SOL     OW 9415   3.960   3.879   0.179  0.3196  0.6288  0.0805
 3120SOL    HW1 9416   3.951   3.941   0.107 -1.1754  0.0056 -0.2931
 3120SOL    HW2 9417   3.997   3.931   0.250 -0.8672  1.9638 -0.2349
 3121SOL     OW 9418   4.643   0.079   0.281 -0.2144 -0.1971 -0.6257
 3121SOL    HW1 9419   4.646   0.158   0.227 -0.2567  0.0529 -0.2684
 3121SOL    HW2 9420   4.700   0.017   0.237  2.1235  0.9790  0.5957
 3122SOL     OW 9421   0.274   1.901   0.064  0.1806 -0.1244 -0.1582
 3122SOL    HW1 9422   0.189   1.923   0.103  0.0771  0.8201 -0.8887
 3122SOL    HW2 9423   0.252   1.868  -0.023  0.4600 -1.5203  0.2815
 3123SOL     OW 9424   3.491   2.421   2.473 -0.2663  0.3500 -0.6429
 3123SOL    HW1 9425   3.562   2.460   2.523  0.0373  0.7833 -1.3889
 3123SOL    HW2 9426   3.426   2.394   2.538  0.5622 -0.0180  0.0464
 3124SOL     OW 9427   2.818   0.290   0.702  0.0495  0.1982  0.3957
 3124SOL    HW1 9428   2.906   0.326   0.698 -0.2401  0.8129 -0.7796
 3124SOL    HW2 9429   2.830   0.201   0.736  1.3482 -0.3804 -1.4129
 3125SOL     OW 9430   3.650   4.210   0.634  0.3592 -0.1280 -0.3921
 3125SOL    HW1 9431   3.645   4.121   0.668  0.3676  0.7904  2.2872
 3125SOL    HW2 9432   3.699   4.258   0.701 -0.6692  2.1212 -1.1635
 3126SOL     OW 9433   0.243   4.837   1.224 -0.0583 -0.5174  0.7010
 3126SOL    HW1 9434   0.223   4.847   1.131  2.9368 -1.4146 -0.1628
 3126SOL    HW2 9435   0.334   4.866   1.232 -0.4349  0.1486  3.5095
 3127SOL     OW 9436   0.544   0.835   3.837 -0.1215  0.0353 -0.0340
 3127SOL    HW1 9437   0.462   0.838   3.888  0.8421  1.1202  1.5609
 3127SOL    HW2 9438   0.612   0.823   3.903  1.0769 -0.1396 -1.2678
 3128SOL     OW 9439   3.050   4.334   1.790  0.3579  0.1012  0.8461
 3128SOL    HW1 9440   3.010   4.419   1.808  1.9499  1.2577 -0.6788
 3128SOL    HW2 9441   3.048   4.327   1.694 -1.0113 -2.2748  0.9826
 3129SOL     OW 9442   3.934   1.937   4.289 -0.5380 -0.9313  0.3813
 3129SOL    HW1 9443   4.015   1.891   4.308  0.0515 -0.1098 -0.0948
 3129SOL    HW2 9444   3.935   1.949   4.194 -0.4423  0.4752  0.5501
 3130SOL     OW 9445   1.323   2.755   1.813 -0.0182 -0.3861  0.8720
 3130SOL    HW1 9446   1.315   2.781   1.721 -0.0785 -0.0936  0.9579
 3130SOL    HW2 9447   1.388   2.685   1.813  0.6202  0.1973  0.7163
 3131SOL     OW 9448   2.420   1.985   2.122 -0.4535  0.2894  0.2052
 3131SOL    HW1 9449   2.423   1.998   2.027  2.1568  0.0871  0.1988
 3131SOL    HW2 9450   2.442   1.893   2.135  0.6894  0.6574  1.0359
 3132SOL     OW 9451   1.383   2.745   0.865  0.3076 -0.1296 -0.0188
 3132SOL    HW1 9452   1.406   2.679   0.800  0.7792  0.1790 -0.1634
 3132SOL    HW2 9453   1.413   2.828   0.828 -2.3568  0.5338 -0.9340
 3133SOL     OW 9454   0.497   4.570   4.532  0.6243  0.5779  0.0701
 3133SOL    HW1 9455   0.476   4.615   4.449  0.5507 -0.3950 -0.4570
 3133SOL    HW2 9456   0.581   4.527   4.516 -0.1440 -0.9364 -0.0684
 3134SOL     OW 9457   4.452   2.004   1.649 -0.4396  0.5390  0.0596
 3134SOL    HW1 9458   4.510   2.029   1.576  0.1066 -0.8176  0.0114
 3134SOL    HW2 9459   4.364   2.009   1.612 -0.3017  1.5931 -0.1713
 3135SOL     OW 9460   1.993   3.960   4.167  0.4213  0.1170  0.2040
 3135SOL    HW1 9461   2.050   4.027   4.130  1.0837  0.1602  1.2818
 3135SOL    HW2 9462   1.948   3.922   4.091 -2.5768  4.0262 -0.2909
 3136SOL     OW 9463   1.306   2.832   3.507 -0.3198  0.5613  0.7566
 3136SOL    HW1 9464   1.293   2.873   3.422  1.7679 -0.7632 -0.3087
 3136SOL    HW2 9465   1.382   2.877   3.544 -0.8110  0.6836  1.6441
 3137SOL     OW 9466   3.071   3.855   4.197  0.3617 -0.3433 -0.0825
 3137SOL    HW1 9467   2.990   3.805   4.189  0.4990 -0.4210 -1.1860
 3137SOL    HW2 9468   3.045   3.936   4.242 -0.4649 -0.0843 -0.9875
 3138SOL     OW 9469   3.021   2.794   0.737  0.1102 -0.2304 -0.6212
 3138SOL    HW1 9470   3.036   2.860   0.670  0.2080  0.7838  0.3638
 3138SOL    HW2 9471   2.953   2.832   0.794  2.2377  0.4158  1.6814
 3139SOL     OW 9472   0.617   3.108   2.543 -0.2676  0.4159 -0.2374
 3139SOL    HW1 9473   0.625   3.102   2.448 -2.6435 -1.4887 -0.4208
 3139SOL    HW2 9474   0.706   3.098   2.577  0.4249 -0.4321 -2.2132
 3140SOL     OW 9475   4.802   2.641   1.663 -0.2538  0.0625 -0.0109
 3140SOL    HW1 9476   4.823   2.734   1.677  1.1852 -0.0968 -0.8593
 3140SOL    HW2 9477   4.714   2.642   1.626  0.4509  1.2687 -1.8158
 3141SOL     OW 9478   3.723   2.217   0.459 -0.6600 -0.1284 -0.0099
 3141SOL    HW1 9479   3.629   2.222   0.442 -0.5906 -0.5434 -0.5343
 3141SOL    HW2 9480   3.740   2.123   0.470 -0.2584 -0.0797 -0.2174
 3142SOL     OW 9481   4.467   3.839   2.846 -0.9806 -0.7717  0.2868
 3142SOL    HW1 9482   4.439   3.930   2.832 -3.3099 -1.4564  0.1628
 3142SOL    HW2 9483   4.474   3.802   2.759  0.5092 -0.6265  0.3041
 3143SOL     OW 9484   0.188   0.771   3.182 -0.1208 -0.0124  0.2233
 3143SOL    HW1 9485   0.101   0.776   3.142 -0.4740 -0.6243  0.8871
 3143SOL    HW2 9486   0.195   0.851   3.235 -0.2135  0.1155  0.0424
 3144SOL     OW 9487   4.665   4.186   2.952 -0.2839  0.0071  0.5148
 3144SOL    HW1 9488   4.653   4.172   3.046  2.5514 -2.9593  0.6072
 3144SOL    HW2 9489   4.745   4.238   2.946 -0.4879  0.2389 -0.2452
 3145SOL     OW 9490   3.063   4.501   1.249 -0.0931 -0.1952 -0.0364
 3145SOL    HW1 9491   3.113   4.550   1.184 -0.1578  0.4629  0.4019
 3145SOL    HW2 9492   3.088   4.409   1.235 -0.9261 -0.2023 -1.7074
 3146SOL     OW 9493   1.210   3.130   4.503 -0.0946  0.1420 -0.2147
 3146SOL    HW1 9494   1.181   3.219   4.523  0.1483  0.3734 -0.8570
 3146SOL    HW2 9495   1.251   3.099   4.583 -2.3477 -0.3108  0.8476
 3147SOL     OW 9496   2.956   4.293   2.357  0.0212  0.0231 -0.8496
 3147SOL    HW1 9497   3.016   4.307   2.284  0.3909  1.7835 -0.2545
 3147SOL    HW2 9498   2.895   4.367   2.352  0.4985  0.5694  1.0471
 3148SOL     OW 9499   3.390   1.735   2.992  0.6369 -0.0918  0.5810
 3148SOL    HW1 9500   3.401   1.820   3.034  0.6892  0.4261 -0.4493
 3148SOL    HW2 9501   3.417   1.672   3.059 -0.9267  0.5950  1.9220
 3149SOL     OW 9502   0.104   4.388   2.634 -0.3536 -0.0148  0.2017
 3149SOL    HW1 9503   0.040   4.350   2.694  0.0864  0.4030  0.9498
 3149SOL    HW2 9504   0.166   4.434   2.691 -1.1668  2.3170 -0.6675
 3150SOL     OW 9505   1.905   4.977   3.951  0.0142  0.2708  0.1416
 3150SOL    HW1 9506   1.819   4.951   3.918  0.5541 -2.1420  0.4352
 3150SOL    HW2 9507   1.934   4.902   4.002  0.9532  2.2615  2.7734
 3151SOL     OW 9508   4.251   3.766   3.612 -0.0829 -0.2796 -0.1187
 3151SOL    HW1 9509   4.188   3.805   3.672  0.0539  2.1736 -1.4419
 3151SOL    HW2 9510   4.197   3.722   3.546 -0.5033  1.6922 -1.1709
 3152SOL     OW 9511   4.902   2.636   0.387 -0.5317 -0.1795 -0.1655
 3152SOL    HW1 9512   4.950   2.686   0.320 -2.5733 -0.7682 -2.2023
 3152SOL    HW2 9513   4.886   2.699   0.457  0.0221  1.0140 -1.0641
 3153SOL     OW 9514   3.686   4.289   4.407 -0.0847 -0.1566  0.3841
 3153SOL    HW1 9515   3.776   4.259   4.422 -0.3946 -0.8331  0.9201
 3153SOL    HW2 9516   3.662   4.250   4.323  0.5909  1.1505 -0.4430
 3154SOL     OW 9517   3.800   2.888   3.513 -0.0969  0.2840 -0.0963
 3154SOL    HW1 9518   3.885   2.923   3.540 -0.0974  0.1310  0.1069
 3154SOL    HW2 9519   3.817   2.796   3.493 -0.3634  0.0580  0.6807
 3155SOL     OW 9520   1.598   1.575   4.785  0.3104  0.5115 -0.3747
 3155SOL    HW1 9521   1.507   1.550   4.804  0.2173  1.1803  0.1295
 3155SOL    HW2 9522   1.591   1.661   4.744  0.7070  0.4662 -0.5406
 3156SOL     OW 9523   0.621   1.948   1.755  0.2833  0.8316 -0.0745
 3156SOL    HW1 9524   0.672   2.008   1.700  0.9762  0.9665  0.6981
 3156SOL    HW2 9525   0.678   1.872   1.767  0.2387  0.9045  0.6486
 3157SOL     OW 9526   0.666   0.715   3.621  0.6129  0.1059 -0.0850
 3157SOL    HW1 9527   0.613   0.638   3.602  1.0742 -0.2812  0.1726
 3157SOL    HW2 9528   0.622   0.757   3.695  0.2294  0.2172 -0.3786
 3158SOL     OW 9529   0.735   0.451   3.056  0.1825 -0.1004 -0.3294
 3158SOL    HW1 9530   0.695   0.503   2.986  0.2066  0.0257 -0.2493
 3158SOL    HW2 9531   0.828   0.446   3.031  0.3779  0.7447  0.1812
 3159SOL     OW 9532   2.565   1.326   3.353 -0.5797 -0.1410  0.6945
 3159SOL    HW1 9533   2.608   1.241   3.343 -1.4655 -0.7331  1.7103
 3159SOL    HW2 9534   2.615   1.370   3.423  0.6809  0.7344 -0.7046
 3160SOL     OW 9535   1.877   1.842   2.451 -0.4049  0.2004 -0.2892
 3160SOL    HW1 9536   1.915   1.792   2.523  1.6695  0.2595 -1.2842
 3160SOL    HW2 9537   1.782   1.830   2.461 -0.1517 -0.2355  2.0907
 3161SOL     OW 9538   0.772   3.499   1.278  0.4189 -0.5223  0.2515
 3161SOL    HW1 9539   0.772   3.450   1.360 -0.3077  0.4039  0.8412
 3161SOL    HW2 9540   0.706   3.455   1.224  0.6706 -0.9472  0.2899
 3162SOL     OW 9541   4.861   1.148   2.246 -0.7237 -0.2901 -0.3225
 3162SOL    HW1 9542   4.927   1.133   2.178  0.5291  0.3139  0.7165
 3162SOL    HW2 9543   4.850   1.243   2.249 -0.1015 -0.2299  0.8886
 3163SOL     OW 9544   2.027   0.828   4.317 -0.6335  0.3826 -0.0727
 3163SOL    HW1 9545   1.934   0.805   4.307 -0.8745  1.5850 -0.8409
 3163SOL    HW2 9546   2.030   0.922   4.300  0.6494  0.4762  0.5558
 3164SOL     OW 9547  -0.020   1.863   0.931 -0.5522  0.2353  0.3143
 3164SOL    HW1 9548  -0.010   1.949   0.973 -1.5050  0.9612 -0.8664
 3164SOL    HW2 9549   0.064   1.820   0.943 -0.3632  0.9550  1.7503
 3165SOL     OW 9550   3.786   0.090   3.103 -0.8952 -0.0608  0.0323
 3165SOL    HW1 9551   3.857   0.099   3.166 -2.4973  0.7852  1.8244
 3165SOL    HW2 9552   3.807   0.011   3.053  0.6889 -0.4637  1.2752
 3166SOL     OW 9553   0.061   3.345   1.725 -0.2379  0.4829  0.0753
 3166SOL    HW1 9554   0.092   3.424   1.681 -3.0579  0.1879 -2.8716
 3166SOL    HW2 9555   0.048   3.281   1.655 -1.4728 -1.3891  1.8606
 3167SOL     OW 9556   1.223   1.818   2.143  0.5999 -0.3070 -0.1007
 3167SOL    HW1 9557   1.173   1.737   2.141 -0.3889  0.1586  2.2502
 3167SOL    HW2 9558   1.170   1.881   2.094  0.5713 -0.6705 -0.5379
 3168SOL     OW 9559   3.869   1.751   3.793 -0.3125 -0.4486  0.2057
 3168SOL    HW1 9560   3.839   1.668   3.757 -1.5656 -0.5019  1.2899
 3168SOL    HW2 9561   3.943   1.728   3.849 -0.3267 -0.7526  0.1005
 3169SOL     OW 9562   3.134   1.534   4.420  0.0400 -0.0924  0.4139
 3169SOL    HW1 9563   3.136   1.610   4.363 -2.4279  1.1846  1.8478
 3169SOL    HW2 9564   3.168   1.566   4.504  1.5590 -1.3607  0.3443
 3170SOL     OW 9565   4.706   3.420   0.415 -0.1614  0.4703  0.1344
 3170SOL    HW1 9566   4.765   3.492   0.439  0.2915  0.3527 -0.5884
 3170SOL    HW2 9567   4.723   3.352   0.480 -0.0204  0.7193  0.3590
 3171SOL     OW 9568   3.846   1.812   1.766 -0.1963 -0.7138  0.1423
 3171SOL    HW1 9569   3.830   1.721   1.738  0.0760 -0.9337  0.6939
 3171SOL    HW2 9570   3.848   1.862   1.684 -2.4343 -0.8615 -0.0642
 3172SOL     OW 9571   4.725   4.603   1.862 -0.3198  0.4022  0.3600
 3172SOL    HW1 9572   4.795   4.543   1.888  0.9289  1.1064 -1.1823
 3172SOL    HW2 9573   4.742   4.683   1.913  0.5096  0.8471 -0.5825
 3173SOL     OW 9574   0.945   2.862   3.499  0.0729 -0.2838 -0.3349
 3173SOL    HW1 9575   0.935   2.821   3.585 -1.0576 -0.0601 -0.3475
 3173SOL    HW2 9576   0.885   2.812   3.443  0.3388 -0.0249 -0.8475
 3174SOL     OW 9577   4.780   1.900   1.894  0.0993 -0.7704 -0.3322
 3174SOL    HW1 9578   4.766   1.900   1.799  0.3473 -2.5675 -0.3934
 3174SOL    HW2 9579   4.867   1.938   1.905  0.1194 -0.6661 -0.8332
 3175SOL     OW 9580   0.945   2.250   3.086  0.3614  0.3706 -0.4333
 3175SOL    HW1 9581   1.012   2.216   3.027  0.5737 -0.3050  0.1859
 3175SOL    HW2 9582   0.985   2.326   3.128  1.6533 -1.3852  1.6941
 3176SOL     OW 9583   4.107   2.424   0.944 -0.0450  0.4806 -0.8010
 3176SOL    HW1 9584   4.056   2.504   0.956 -1.0843 -0.1870 -0.6018
 3176SOL    HW2 9585   4.091   2.373   1.023  1.6416  0.6120 -0.3541
 3177SOL     OW 9586   0.034   3.283   1.400 -0.6545 -0.1994  0.7574
 3177SOL    HW1 9587   0.022   3.342   1.325 -0.1736  0.8105  1.4532
 3177SOL    HW2 9588   0.075   3.205   1.363  0.4401  0.6677  0.1032
 3178SOL     OW 9589   0.426   3.137   3.919 -0.4119 -0.1794 -0.4164
 3178SOL    HW1 9590   0.416   3.213   3.862  0.8187  1.4361  1.4028
 3178SOL    HW2 9591   0.513   3.103   3.898  0.1972  0.6369  0.6573
 3179SOL     OW 9592   2.047   1.166   1.195 -1.1623  0.1634  0.4823
 3179SOL    HW1 9593   2.035   1.234   1.129 -0.4529  1.9701  2.1311
 3179SOL    HW2 9594   2.081   1.092   1.146 -2.0834  0.9025 -1.4010
 3180SOL     OW 9595   2.777   1.957   0.032 -0.0577  0.4073 -0.2664
 3180SOL    HW1 9596   2.691   1.937  -0.004 -0.1991 -1.9479  1.1550
 3180SOL    HW2 9597   2.783   1.903   0.111  2.9242  0.1019 -0.5795
 3181SOL     OW 9598   2.700   0.733   2.783 -0.2834 -0.2464  0.7580
 3181SOL    HW1 9599   2.745   0.756   2.864  0.0739 -2.6161  1.3189
 3181SOL    HW2 9600   2.624   0.681   2.812 -1.3424  0.6402 -0.3463
 3182SOL     OW 9601   1.245   2.987   0.556 -0.2270  0.2608 -0.2887
 3182SOL    HW1 9602   1.325   2.992   0.608 -0.3807  0.1890 -0.0427
 3182SOL    HW2 9603   1.202   3.071   0.571 -0.1572  0.3343 -0.4911
 3183SOL     OW 9604   2.344   4.204   3.843 -1.2326  0.1218 -0.7463
 3183SOL    HW1 9605   2.404   4.252   3.900 -0.2692 -0.6630 -1.0599
 3183SOL    HW2 9606   2.287   4.157   3.903 -0.3035 -0.6044 -0.3965
 3184SOL     OW 9607   4.613   3.902   0.453  0.1822 -0.3515 -0.1047
 3184SOL    HW1 9608   4.592   3.995   0.466  0.6998 -0.3875  1.1688
 3184SOL    HW2 9609   4.705   3.902   0.427  0.1732 -0.4955 -0.1351
 3185SOL     OW 9610   3.932   4.508   0.540 -0.4004  0.4767 -0.2831
 3185SOL    HW1 9611   4.006   4.522   0.481  1.1789 -0.7155  1.3057
 3185SOL    HW2 9612   3.864   4.470   0.484  1.5097 -1.9351 -1.1728
 3186SOL     OW 9613   4.808   2.223   4.223 -0.3244 -0.5356 -0.0970
 3186SOL    HW1 9614   4.724   2.179   4.207 -1.3900  1.6375 -0.9464
 3186SOL    HW2 9615   4.844   2.236   4.135 -1.3768  2.6161 -0.1699
 3187SOL     OW 9616   4.312   1.113   4.689  0.2083  0.0890 -0.0417
 3187SOL    HW1 9617   4.284   1.051   4.621 -1.1471  0.2144  0.3862
 3187SOL    HW2 9618   4.238   1.119   4.749  0.4701  1.8062  0.1647
 3188SOL     OW 9619   4.639   2.895   0.419 -0.0532  0.3024 -0.3862
 3188SOL    HW1 9620   4.619   2.802   0.424  0.0864  0.2875 -0.1028
 3188SOL    HW2 9621   4.557   2.936   0.392 -0.6549  0.3061  1.3457
 3189SOL     OW 9622   4.059   0.366   3.081 -0.5352 -0.1766  0.3448
 3189SOL    HW1 9623   4.018   0.387   2.997  0.0134 -3.2186 -0.8107
 3189SOL    HW2 9624   4.151   0.391   3.070 -1.0325  2.2948  1.2454
 3190SOL     OW 9625   2.321   1.803   3.056 -0.0310 -0.3085 -0.3811
 3190SOL    HW1 9626   2.413   1.812   3.081 -0.5533  1.1112  1.1989
 3190SOL    HW2 9627   2.274   1.861   3.117 -1.7175  1.0551 -2.8298
 3191SOL     OW 9628   4.471   4.316   0.960 -0.3199 -0.1056 -0.0745
 3191SOL    HW1 9629   4.541   4.358   1.010  0.2650 -0.1177 -0.8698
 3191SOL    HW2 9630   4.394   4.324   1.016  0.0593  0.9159  0.3204
 3192SOL     OW 9631   3.784   0.562   2.380 -0.3547  0.3004  0.0674
 3192SOL    HW1 9632   3.788   0.466   2.383  0.2430  0.3451  1.5399
 3192SOL    HW2 9633   3.702   0.583   2.425  0.0757  0.4947  0.7850
 3193SOL     OW 9634   4.150   1.951   1.232 -0.2745 -0.4059  0.0972
 3193SOL    HW1 9635   4.099   1.872   1.249  0.0364 -0.3497  1.3571
 3193SOL    HW2 9636   4.094   2.022   1.261  0.3366 -0.3147  1.0858
 3194SOL     OW 9637   3.987   4.671   2.300  0.0767  0.0414 -0.3990
 3194SOL    HW1 9638   3.951   4.604   2.242 -1.1232 -0.8572  1.2921
 3194SOL    HW2 9639   4.029   4.622   2.371  0.1775  1.0742  0.2815
 3195SOL     OW 9640   2.699   4.698   4.460  0.3130 -0.4124  0.5612
 3195SOL    HW1 9641   2.660   4.668   4.378  0.0210 -1.0479  0.9308
 3195SOL    HW2 9642   2.791   4.712   4.440  0.0233  0.5840 -0.1822
 3196SOL     OW 9643   0.929   1.027   0.789  0.2663 -0.2501 -0.0988
 3196SOL    HW1 9644   0.847   1.013   0.837 -0.1588 -0.5366 -0.9017
 3196SOL    HW2 9645   0.921   1.115   0.753  0.7877  0.1534  0.7167
 3197SOL     OW 9646   3.436   2.967   3.362 -0.0795 -0.0380 -0.6048
 3197SOL    HW1 9647   3.375   3.016   3.306 -0.7014  0.8055  0.7608
 3197SOL    HW2 9648   3.486   3.034   3.408 -2.1129 -0.5168  2.5959
 3198SOL     OW 9649   3.918   3.985   4.206  0.3366  0.1173  0.6317
 3198SOL    HW1 9650   3.978   4.011   4.276 -0.7455  0.1860  1.5612
 3198SOL    HW2 9651   3.866   3.915   4.244 -1.4362  1.2995  0.5275
 3199SOL     OW 9652   2.165   2.074   2.289 -0.1673 -0.5691  0.3840
 3199SOL    HW1 9653   2.233   2.036   2.344  0.1788 -0.1273  0.2621
 3199SOL    HW2 9654   2.212   2.123   2.222 -0.6011 -0.4359  0.1717
 3200SOL     OW 9655   4.216   3.496   1.284  0.4490 -0.0930  0.1383
 3200SOL    HW1 9656   4.309   3.485   1.263  0.1125 -0.0963 -1.4216
 3200SOL    HW2 9657   4.183   3.557   1.219 -1.0399 -1.4697 -0.4648
 3201SOL     OW 9658   1.207   4.646   2.056  0.6759 -0.6698 -0.3865
 3201SOL    HW1 9659   1.132   4.637   1.998 -0.2984 -1.9783  1.0061
 3201SOL    HW2 9660   1.197   4.732   2.096 -2.2496 -2.1662  2.5507
 3202SOL     OW 9661   2.165   4.448   1.502 -0.4887  0.1358 -0.7571
 3202SOL    HW1 9662   2.238   4.506   1.481  1.1913 -0.3302  2.9568
 3202SOL    HW2 9663   2.102   4.504   1.548 -0.0752 -0.4153  0.5144
 3203SOL     OW 9664   0.790   1.315   2.390 -0.2219  0.6301 -0.3683
 3203SOL    HW1 9665   0.715   1.316   2.449  0.7178  0.8622  0.8452
 3203SOL    HW2 9666   0.755   1.349   2.307 -1.5913  0.1393 -0.0128
 3204SOL     OW 9667   0.024   0.621   2.391 -0.4457 -0.5558  0.2272
 3204SOL    HW1 9668   0.112   0.655   2.373 -0.4547 -0.8945 -0.4767
 3204SOL    HW2 9669  -0.028   0.649   2.317 -0.3058 -2.6355 -0.7247
 3205SOL     OW 9670   0.821   2.813   1.760  0.0734 -0.7048  0.7983
 3205SOL    HW1 9671   0.893   2.876   1.769  0.2373 -0.9600  1.3027
 3205SOL    HW2 9672   0.855   2.745   1.702 -0.3747  0.0534 -0.3997
 3206SOL     OW 9673   1.432   2.188   0.777  0.0230 -0.3787 -0.3233
 3206SOL    HW1 9674   1.504   2.205   0.837  0.2936  1.4233 -1.0763
 3206SOL    HW2 9675   1.475   2.171   0.693 -0.3691  2.0124 -1.0815
 3207SOL     OW 9676   3.834   2.624   3.449 -0.3834 -0.1240 -0.1056
 3207SOL    HW1 9677   3.892   2.580   3.386  0.9570 -1.3104  1.8602
 3207SOL    HW2 9678   3.768   2.558   3.471 -0.7239  0.2164 -0.0977
 3208SOL     OW 9679   0.184   3.629   3.237  0.0015 -0.1052  0.4256
 3208SOL    HW1 9680   0.227   3.684   3.303 -1.6147  0.4438  1.0766
 3208SOL    HW2 9681   0.146   3.557   3.287 -0.5217 -0.1415 -0.0136
 3209SOL     OW 9682   0.154   4.709   4.013  0.1642 -0.0111 -0.4673
 3209SOL    HW1 9683   0.229   4.766   3.997 -0.8072  1.3043 -0.5194
 3209SOL    HW2 9684   0.192   4.627   4.046  1.5824  0.7839 -0.0619
 3210SOL     OW 9685   2.112   1.977   1.407 -0.7171 -0.2436 -0.3695
 3210SOL    HW1 9686   2.032   1.995   1.457  0.6812  1.3924  1.4434
 3210SOL    HW2 9687   2.134   2.059   1.364  0.7352 -0.2066  0.3587
 3211SOL     OW 9688   1.317   2.082   4.193  0.0561 -0.3675  0.0347
 3211SOL    HW1 9689   1.231   2.104   4.158  0.7094 -0.2257 -1.5303
 3211SOL    HW2 9690   1.376   2.147   4.157  1.1275 -1.5251 -0.3908
 3212SOL     OW 9691   1.269   1.798   0.072  0.0394 -0.3993  0.1572
 3212SOL    HW1 9692   1.309   1.876   0.031  3.2402 -1.2077  1.4498
 3212SOL    HW2 9693   1.283   1.811   0.166 -0.7941 -1.8487  0.5009
 3213SOL     OW 9694   0.215   1.038   2.734  0.0706 -0.2288 -0.3573
 3213SOL    HW1 9695   0.277   1.035   2.807 -0.2398 -0.7127 -0.1045
 3213SOL    HW2 9696   0.247   1.108   2.678  1.5880 -1.3077 -0.8925
 3214SOL     OW 9697   4.574   1.517   4.733  0.2787  0.5558  0.2569
 3214SOL    HW1 9698   4.510   1.574   4.690  1.0749  1.6454  0.4704
 3214SOL    HW2 9699   4.657   1.562   4.720  0.6726  0.4015  2.0695
 3215SOL     OW 9700   2.479   3.336   4.946  0.4336 -0.2136 -0.3008
 3215SOL    HW1 9701   2.526   3.293   4.874  0.3092  0.0344 -0.5298
 3215SOL    HW2 9702   2.407   3.277   4.966 -0.9110  0.7656 -1.9147
 3216SOL     OW 9703   0.197   0.358   1.851  0.2055 -0.1726  0.7369
 3216SOL    HW1 9704   0.223   0.276   1.809  1.0652  1.0447 -1.3072
 3216SOL    HW2 9705   0.250   0.363   1.930  0.2954 -1.4832  0.7728
 3217SOL     OW 9706   1.297   1.205   2.251 -0.0077  0.0298 -0.0971
 3217SOL    HW1 9707   1.365   1.185   2.186  1.5202  3.5347  0.2282
 3217SOL    HW2 9708   1.316   1.145   2.324  0.2004 -1.7655 -1.5383
 3218SOL     OW 9709   1.748   3.360   3.535 -0.7132 -0.0574  0.1974
 3218SOL    HW1 9710   1.680   3.424   3.514 -0.6224  0.7865  2.2455
 3218SOL    HW2 9711   1.811   3.409   3.589  0.5193 -1.3177 -0.0494
 3219SOL     OW 9712   2.892   1.411   3.760 -0.0523 -0.4364  0.2668
 3219SOL    HW1 9713   2.850   1.332   3.794  0.7315 -1.2392 -0.5616
 3219SOL    HW2 9714   2.977   1.382   3.729 -0.2173  0.4803 -1.1732
 3220SOL     OW 9715   1.029   1.873   0.963  0.1268 -0.0746 -0.0548
 3220SOL    HW1 9716   0.975   1.810   1.012 -0.6725  0.8380  0.2653
 3220SOL    HW2 9717   0.967   1.918   0.906  1.0899 -1.3515 -2.2179
 3221SOL     OW 9718   0.137   1.164   4.025 -0.0651  0.0424  0.4366
 3221SOL    HW1 9719   0.067   1.107   3.993 -0.2618 -0.0312  0.9903
 3221SOL    HW2 9720   0.112   1.184   4.115 -0.2441  1.3997  0.0985
 3222SOL     OW 9721   4.050   3.838   3.787 -0.3738 -0.0650  0.5196
 3222SOL    HW1 9722   3.957   3.850   3.768 -0.5926 -1.1191  0.8554
 3222SOL    HW2 9723   4.072   3.912   3.845  0.1147  2.7520 -2.9122
 3223SOL     OW 9724   0.621   0.409   4.683 -0.1793  0.0420 -0.0499
 3223SOL    HW1 9725   0.622   0.490   4.734  0.5344 -0.2500  0.4197
 3223SOL    HW2 9726   0.711   0.399   4.653 -0.1855 -0.7436  0.1689
 3224SOL     OW 9727   4.442   1.956   2.438 -0.3288 -0.0980 -0.0016
 3224SOL    HW1 9728   4.514   1.923   2.385 -1.5863 -1.2289 -1.0594
 3224SOL    HW2 9729   4.390   2.009   2.377 -1.5244 -1.0082  0.2062
 3225SOL     OW 9730   4.783   2.342   3.345 -0.8935  0.4225 -0.2863
 3225SOL    HW1 9731   4.873   2.358   3.316 -1.1134 -0.3528 -1.4952
 3225SOL    HW2 9732   4.747   2.429   3.362  0.6626  0.6883  2.2064
 3226SOL     OW 9733   0.085   2.819   1.306 -0.2170 -0.0772  0.0213
 3226SOL    HW1 9734   0.122   2.858   1.385 -0.2005  2.1224 -0.9704
 3226SOL    HW2 9735   0.156   2.823   1.242 -1.2142  1.4585 -1.0685
 3227SOL     OW 9736   3.808   4.739   3.940 -0.6126  0.4905  0.2909
 3227SOL    HW1 9737   3.745   4.698   3.881 -0.0935 -1.5823  1.0934
 3227SOL    HW2 9738   3.849   4.808   3.888 -0.9286 -0.5609 -1.4210
 3228SOL     OW 9739   3.240   3.828   3.525 -0.5724 -0.4169 -0.2192
 3228SOL    HW1 9740   3.254   3.746   3.573 -1.0637 -0.1850  0.3216
 3228SOL    HW2 9741   3.269   3.808   3.436 -3.2616 -2.0771 -0.8524
 3229SOL     OW 9742   3.968   3.634   3.975 -0.0312  0.5700 -0.2566
 3229SOL    HW1 9743   3.975   3.571   3.903  0.4127 -0.2381  0.4753
 3229SOL    HW2 9744   4.003   3.716   3.939 -0.2265  0.2924 -1.0930
 3230SOL     OW 9745   3.832   1.837   4.875  0.2798  0.3939  0.0908
 3230SOL    HW1 9746   3.858   1.782   4.801 -1.1425 -1.1781  0.7142
 3230SOL    HW2 9747   3.914   1.856   4.921  0.9474 -0.1067 -0.8679
 3231SOL     OW 9748   2.765   2.967   0.871 -0.1284  0.2183  0.2170
 3231SOL    HW1 9749   2.847   3.016   0.866 -0.5829  0.8260 -2.4156
 3231SOL    HW2 9750   2.698   3.030   0.844 -0.9437 -1.3359 -1.5491
 3232SOL     OW 9751   4.755   0.043   1.050 -0.3308 -0.3192  0.2656
 3232SOL    HW1 9752   4.806  -0.024   1.096  1.4035  1.4229  1.0145
 3232SOL    HW2 9753   4.708   0.090   1.119 -0.2722  0.2525 -0.0758
 3233SOL     OW 9754   1.284   0.843   4.108  0.7282 -0.0437 -0.1859
 3233SOL    HW1 9755   1.317   0.914   4.052  0.8586  0.1162  0.0908
 3233SOL    HW2 9756   1.204   0.880   4.146  0.8662  0.0035  0.0593
 3234SOL     OW 9757   4.412   1.921   4.881  0.1429 -0.2929  0.9384
 3234SOL    HW1 9758   4.456   2.006   4.890  0.3133 -0.3661  0.8039
 3234SOL    HW2 9759   4.459   1.863   4.941 -0.1014 -0.2441  1.1801
 3235SOL     OW 9760   1.898   2.982   4.650 -0.4541 -0.3479 -0.4032
 3235SOL    HW1 9761   1.983   3.025   4.644  0.3275 -1.8716 -0.9469
 3235SOL    HW2 9762   1.851   3.011   4.572  0.4283 -1.1925 -1.2762
 3236SOL     OW 9763   1.964   2.496   4.434 -0.3952 -0.1112 -0.1128
 3236SOL    HW1 9764   1.999   2.584   4.444 -0.3575 -0.2545  1.0738
 3236SOL    HW2 9765   1.963   2.482   4.339  0.4388  0.8183 -0.2774
 3237SOL     OW 9766   3.306   3.107   3.892  0.5567  0.6646  0.6824
 3237SOL    HW1 9767   3.305   3.086   3.798  1.6526  1.6365  0.4394
 3237SOL    HW2 9768   3.343   3.028   3.933  0.0713  0.2334  0.3094
 3238SOL     OW 9769   2.371   4.161   2.820 -0.0230 -0.1524  0.2090
 3238SOL    HW1 9770   2.313   4.128   2.751 -0.6905  0.6370  0.3919
 3238SOL    HW2 9771   2.443   4.097   2.822  1.6279  1.3688 -3.3064
 3239SOL     OW 9772   3.536   0.368   0.674 -0.2053  0.4188 -0.4712
 3239SOL    HW1 9773   3.528   0.411   0.759 -0.0387 -1.9382  0.8462
 3239SOL    HW2 9774   3.461   0.309   0.670 -0.4555  0.8127 -2.1845
 3240SOL     OW 9775   4.706   0.364   3.227 -0.0112  0.4792 -0.0891
 3240SOL    HW1 9776   4.795   0.398   3.218 -0.2823  1.4109  0.5587
 3240SOL    HW2 9777   4.713   0.296   3.294  0.8335 -1.9894 -2.5133
 3241SOL     OW 9778   3.757   1.313   4.591 -0.8316 -0.7330 -0.2332
 3241SOL    HW1 9779   3.828   1.375   4.606 -0.8210 -0.7936 -0.0281
 3241SOL    HW2 9780   3.755   1.259   4.670  0.3790 -2.2137 -1.1606
 3242SOL     OW 9781   1.369   3.098   1.458  0.3126  0.3383  0.3062
 3242SOL    HW1 9782   1.410   3.173   1.415 -2.7967  2.7054  1.0957
 3242SOL    HW2 9783   1.338   3.043   1.386 -2.1639  2.7162 -0.6087
 3243SOL     OW 9784   1.277   4.216   4.933 -0.3525 -0.8378  0.2733
 3243SOL    HW1 9785   1.212   4.203   4.865 -0.0301  0.3128 -0.2910
 3243SOL    HW2 9786   1.227   4.214   5.015 -1.1430  0.2340 -0.1597
 3244SOL     OW 9787   3.601   1.202   0.740 -0.4406  0.4339 -0.1975
 3244SOL    HW1 9788   3.644   1.256   0.806 -0.4752  2.5840 -1.8019
 3244SOL    HW2 9789   3.530   1.159   0.787  0.8748  0.1199  1.6004
 3245SOL     OW 9790   1.030   0.606   4.916 -0.3139 -0.0141  0.2134
 3245SOL    HW1 9791   1.050   0.626   5.008  0.4021  1.0963 -0.1710
 3245SOL    HW2 9792   1.053   0.514   4.907  2.9640  0.6986  0.3010
 3246SOL     OW 9793   2.419   0.015   2.655  0.0291 -0.3206  0.7361
 3246SOL    HW1 9794   2.469  -0.024   2.583  0.6232  0.0898  0.9194
 3246SOL    HW2 9795   2.444   0.107   2.655 -1.7775  0.2010 -0.0394
 3247SOL     OW 9796   1.580   2.643   2.614 -0.2943  0.5872  0.3013
 3247SOL    HW1 9797   1.548   2.655   2.703 -0.5831  2.1719  0.0227
 3247SOL    HW2 9798   1.521   2.697   2.561 -1.7503 -2.2816 -1.2125
 3248SOL     OW 9799   4.037   0.934   1.726  0.4332  0.1313  0.4056
 3248SOL    HW1 9800   4.008   1.014   1.769  2.5043 -0.0912  2.4414
 3248SOL    HW2 9801   4.043   0.958   1.633 -0.1295  1.9586  0.7914
 3249SOL     OW 9802   0.796   3.874   0.947 -0.1781  0.0245  0.7870
 3249SOL    HW1 9803   0.783   3.779   0.938 -2.7864  0.3295  0.7823
 3249SOL    HW2 9804   0.719   3.905   0.993  0.1623  2.3023 -0.0478
 3250SOL     OW 9805   2.931   1.752   1.185  0.2723 -0.0616 -0.5649
 3250SOL    HW1 9806   2.838   1.775   1.194  0.8081  1.4787  1.8319
 3250SOL    HW2 9807   2.973   1.831   1.151  1.0017 -0.0031  0.4209
 3251SOL     OW 9808   0.480   3.075   4.226 -0.3120  0.6030  0.3243
 3251SOL    HW1 9809   0.434   3.013   4.169 -0.0531  0.7323 -0.0272
 3251SOL    HW2 9810   0.564   3.089   4.184 -0.7148  1.9014 -0.0942
 3252SOL     OW 9811   4.267   2.832   4.251  0.2463  0.7030 -0.3421
 3252SOL    HW1 9812   4.263   2.739   4.275 -0.3963  0.1595 -2.3146
 3252SOL    HW2 9813   4.220   2.877   4.321  0.8290 -0.4238  0.7987
 3253SOL     OW 9814   0.444   3.660   2.083  0.4622 -0.9699 -0.2134
 3253SOL    HW1 9815   0.392   3.593   2.128  0.3827 -0.6403  0.1835
 3253SOL    HW2 9816   0.389   3.738   2.085  1.0586 -0.5633  0.3927
 3254SOL     OW 9817   1.147   3.362   1.522  0.4363  0.0754 -0.5164
 3254SOL    HW1 9818   1.175   3.288   1.576 -0.9924 -0.0790  0.0720
 3254SOL    HW2 9819   1.135   3.325   1.435 -1.1085 -0.6217 -0.0420
 3255SOL     OW 9820   0.336   4.122   2.007  0.0616 -0.5115  0.7024
 3255SOL    HW1 9821   0.333   4.203   1.955 -0.4273 -1.0972 -0.2210
 3255SOL    HW2 9822   0.285   4.142   2.086  0.2880  0.2057  0.6748
 3256SOL     OW 9823   0.653   4.764   3.996  0.1791 -0.4759 -0.4107
 3256SOL    HW1 9824   0.684   4.717   3.918 -0.0071 -0.8936 -0.2352
 3256SOL    HW2 9825   0.732   4.775   4.048  0.1090 -1.2233 -0.1310
 3257SOL     OW 9826   2.448   3.631   2.956 -0.2258 -0.0639 -0.4709
 3257SOL    HW1 9827   2.461   3.581   2.875  1.8143  0.7523 -0.6955
 3257SOL    HW2 9828   2.375   3.690   2.935 -0.5029 -0.6764 -1.3040
 3258SOL     OW 9829   1.190   4.413   4.590 -0.6491 -0.0890 -0.4124
 3258SOL    HW1 9830   1.260   4.348   4.601  0.3677  0.9910 -0.2383
 3258SOL    HW2 9831   1.180   4.451   4.678  0.3567  1.5218 -0.9465
 3259SOL     OW 9832   0.539   2.365   4.617  0.3707  0.1156  0.0283
 3259SOL    HW1 9833   0.582   2.450   4.603  0.4162  0.2678  1.0086
 3259SOL    HW2 9834   0.542   2.352   4.712  0.4444 -1.0283 -0.1110
 3260SOL     OW 9835   0.521   1.584   0.866 -0.3767 -0.2104  0.1184
 3260SOL    HW1 9836   0.431   1.557   0.844 -0.3630  0.7165 -1.1712
 3260SOL    HW2 9837   0.572   1.564   0.787  0.8305 -1.7831  1.2201
 3261SOL     OW 9838   1.656   1.222   1.401  0.6142  0.0137  0.1867
 3261SOL    HW1 9839   1.684   1.156   1.339  0.6047 -0.6976  0.9257
 3261SOL    HW2 9840   1.730   1.233   1.461  0.8525  1.1264 -0.2819
 3262SOL     OW 9841   2.507   1.909   0.206  0.4948 -0.3806  0.1498
 3262SOL    HW1 9842   2.504   1.908   0.111 -0.2303  2.0993  0.0528
 3262SOL    HW2 9843   2.598   1.892   0.228  0.5831 -1.4530 -0.9358
 3263SOL     OW 9844   0.288   0.332   4.791 -0.4991 -0.3508  0.5521
 3263SOL    HW1 9845   0.263   0.406   4.846  1.4642 -0.5931  1.8605
 3263SOL    HW2 9846   0.383   0.325   4.800 -0.4249 -2.0144 -0.8555
 3264SOL     OW 9847   4.866   3.856   0.259 -0.1548 -0.2626 -0.4579
 3264SOL    HW1 9848   4.799   3.846   0.191 -2.6710 -0.4674  1.8853
 3264SOL    HW2 9849   4.910   3.939   0.237  0.7793 -1.4270 -3.5503
 3265SOL     OW 9850   1.925   2.935   1.597 -0.5099  0.1315  0.2213
 3265SOL    HW1 9851   1.881   2.963   1.677 -2.0111 -0.0408 -0.5154
 3265SOL    HW2 9852   1.997   2.997   1.587 -1.3547  1.2435  0.7802
 3266SOL     OW 9853   0.714   0.146   3.763  0.0213  0.1348 -0.2462
 3266SOL    HW1 9854   0.634   0.197   3.754  0.7336  0.9722 -2.6361
 3266SOL    HW2 9855   0.702   0.072   3.704  0.2817 -0.7578  0.7975
 3267SOL     OW 9856   2.044   4.714   1.547  0.1640 -0.1450 -0.1327
 3267SOL    HW1 9857   1.969   4.766   1.576  0.0898 -0.0492 -0.4857
 3267SOL    HW2 9858   2.111   4.779   1.524  0.7429 -0.2514  1.1809
 3268SOL     OW 9859   0.743   3.098   4.819  0.2136  0.1165  0.2537
 3268SOL    HW1 9860   0.821   3.082   4.873  0.0263 -1.7652  0.0336
 3268SOL    HW2 9861   0.672   3.108   4.882  0.3696  0.2111  0.4161
 3269SOL     OW 9862   1.573   1.268   4.969 -0.1812 -0.2683  0.6230
 3269SOL    HW1 9863   1.496   1.255   5.025 -1.0493  0.5739 -0.3162
 3269SOL    HW2 9864   1.536   1.292   4.884  1.1314  1.5499  0.5155
 3270SOL     OW 9865   2.652   4.907  -0.022  0.4178 -0.3611  0.2452
 3270SOL    HW1 9866   2.728   4.878   0.029 -1.3626 -0.2390  3.1838
 3270SOL    HW2 9867   2.619   4.983   0.026 -1.8061 -0.6605 -0.6997
 3271SOL     OW 9868   3.096   3.491   2.897  0.6430  0.8217  0.3762
 3271SOL    HW1 9869   3.107   3.530   2.983  1.2594  0.0930  0.6377
 3271SOL    HW2 9870   3.003   3.504   2.877  0.5292  1.1379  1.0760
 3272SOL     OW 9871   3.546   1.955   3.573  0.7908  0.5953  0.0915
 3272SOL    HW1 9872   3.474   1.981   3.515  1.2787 -0.5617 -1.0909
 3272SOL    HW2 9873   3.578   1.873   3.536  0.2989 -0.9267  2.7450
 3273SOL     OW 9874   0.237   1.552   2.619 -0.0431 -0.9633  0.1957
 3273SOL    HW1 9875   0.174   1.513   2.679  0.8190  0.2882  2.0082
 3273SOL    HW2 9876   0.222   1.646   2.626  0.1513 -0.7740 -1.5148
 3274SOL     OW 9877   0.068   4.672   4.737  0.0923  0.3164 -0.6571
 3274SOL    HW1 9878  -0.021   4.660   4.771  0.3030  0.6741  0.0558
 3274SOL    HW2 9879   0.064   4.754   4.687 -0.0121  0.2607 -0.7397
 3275SOL     OW 9880   1.985   3.617   0.368 -0.1492 -0.0304  0.1446
 3275SOL    HW1 9881   2.025   3.616   0.281 -0.2249  0.9790  0.0839
 3275SOL    HW2 9882   2.059   3.628   0.428  0.0260 -1.8429  0.3129
 3276SOL     OW 9883   0.608   4.213   4.286 -0.0728  0.2829 -0.0255
 3276SOL    HW1 9884   0.677   4.262   4.332  0.3014  0.2415 -0.5275
 3276SOL    HW2 9885   0.568   4.278   4.227 -0.1521  0.1938 -0.0700
 3277SOL     OW 9886   3.585   2.570   3.658  0.4296 -0.6031 -0.1312
 3277SOL    HW1 9887   3.666   2.583   3.707  0.8006  0.6449 -1.0313
 3277SOL    HW2 9888   3.522   2.628   3.701  0.6587  0.2192 -0.8908
 3278SOL     OW 9889   1.778   2.392   4.621 -0.4471 -0.2789 -0.3128
 3278SOL    HW1 9890   1.791   2.298   4.606  0.9351 -0.2220  0.4011
 3278SOL    HW2 9891   1.847   2.434   4.570 -0.1413  0.2669  0.5358
 3279SOL     OW 9892   0.402   2.987   0.492 -0.1908  0.1992  0.3005
 3279SOL    HW1 9893   0.366   2.912   0.539 -0.6694  0.4884  0.3979
 3279SOL    HW2 9894   0.488   3.000   0.532  0.1725 -0.6925 -0.1541
 3280SOL     OW 9895   2.982   0.635   3.376 -0.2985  0.2082 -0.1980
 3280SOL    HW1 9896   2.985   0.698   3.304 -1.6811  1.7260  0.9887
 3280SOL    HW2 9897   3.058   0.657   3.430 -0.3059  0.2994 -0.2242
 3281SOL     OW 9898   4.916   1.228   2.908 -0.0706  0.4928  0.1315
 3281SOL    HW1 9899   5.006   1.244   2.935 -0.2890  0.5851  0.8068
 3281SOL    HW2 9900   4.921   1.151   2.851  0.4911  0.7711 -0.1995
 3282SOL     OW 9901   2.899   3.691   1.549  0.0538 -0.4398 -0.9172
 3282SOL    HW1 9902   2.906   3.733   1.635  1.1141  0.5475 -1.4597
 3282SOL    HW2 9903   2.878   3.600   1.569  2.0190 -0.6508  0.4793
 3283SOL     OW 9904   4.940   2.475   3.974 -0.2174  0.2676 -0.6587
 3283SOL    HW1 9905   4.964   2.502   3.885 -1.0564 -0.4910 -1.1295
 3283SOL    HW2 9906   4.879   2.402   3.961 -1.8860  1.4067  0.4984
 3284SOL     OW 9907   3.042   3.516   2.332  0.0906  0.5261  0.0212
 3284SOL    HW1 9908   3.039   3.425   2.302 -0.7550  0.1904  1.0822
 3284SOL    HW2 9909   2.951   3.540   2.346  0.2050  1.9451 -1.3499
 3285SOL     OW 9910   1.759   4.659   1.790 -0.2817 -0.2563  0.2621
 3285SOL    HW1 9911   1.724   4.645   1.878 -1.1604 -2.1444 -0.3207
 3285SOL    HW2 9912   1.694   4.714   1.746  0.9396  2.0648  1.2142
 3286SOL     OW 9913   3.315   1.158   3.528 -0.1699 -0.3509 -0.6496
 3286SOL    HW1 9914   3.409   1.143   3.514 -0.1622 -0.8221 -0.1197
 3286SOL    HW2 9915   3.305   1.253   3.521  0.2776 -0.3307 -1.1053
 3287SOL     OW 9916   4.089   2.540   3.970 -0.0415 -0.0154 -0.3168
 3287SOL    HW1 9917   4.065   2.579   4.054 -1.3858 -1.6293  0.0886
 3287SOL    HW2 9918   4.185   2.541   3.970 -0.0130  1.8885  0.2844
 3288SOL     OW 9919   4.777   3.969   2.800 -0.4083  0.0457 -0.0904
 3288SOL    HW1 9920   4.732   3.959   2.717 -0.3583 -1.5389  0.0482
 3288SOL    HW2 9921   4.730   4.040   2.844 -1.4156 -0.1446 -0.8186
 3289SOL     OW 9922   1.341   4.903   3.527  0.0127 -0.5447  0.2905
 3289SOL    HW1 9923   1.348   4.960   3.451 -1.6455 -0.5477  0.1083
 3289SOL    HW2 9924   1.397   4.944   3.593  1.5082 -0.5723 -0.9028
 3290SOL     OW 9925   4.400   0.986   2.606  0.8294  0.1163  0.2310
 3290SOL    HW1 9926   4.343   0.910   2.617  0.4701  0.1758 -1.0034
 3290SOL    HW2 9927   4.434   1.005   2.694 -0.6132 -0.2727  0.8991
 3291SOL     OW 9928   4.862   2.590   2.385 -0.4617 -0.3996 -0.5923
 3291SOL    HW1 9929   4.767   2.604   2.384 -0.4143 -0.0448 -1.2616
 3291SOL    HW2 9930   4.899   2.675   2.360 -0.0653 -1.0801 -2.5377
 3292SOL     OW 9931   4.490   0.886   3.440  0.2235 -0.7863  0.3727
 3292SOL    HW1 9932   4.460   0.976   3.441 -2.0463 -1.4712  0.6884
 3292SOL    HW2 9933   4.485   0.860   3.347 -2.3762 -1.4888  0.6208
 3293SOL     OW 9934   4.380   1.234   0.925  0.0288 -1.2358  0.3338
 3293SOL    HW1 9935   4.421   1.199   1.004  1.9079  1.1707  0.5316
 3293SOL    HW2 9936   4.397   1.168   0.858 -0.9640 -2.9744  1.7074
 3294SOL     OW 9937   1.543   0.104   3.779  0.3077 -0.1345 -0.4665
 3294SOL    HW1 9938   1.498   0.173   3.829 -1.3700 -0.8019 -0.9726
 3294SOL    HW2 9939   1.570   0.040   3.844  2.5342  1.2737  0.1041
 3295SOL     OW 9940   1.507   4.319   0.203  1.0212  0.1388 -0.4128
 3295SOL    HW1 9941   1.565   4.331   0.128  0.2081  1.4795 -0.8621
 3295SOL    HW2 9942   1.441   4.388   0.193  1.0127  0.4877  1.6424
 3296SOL     OW 9943   0.306   2.740   2.740  0.1664  0.4402  0.2915
 3296SOL    HW1 9944   0.396   2.714   2.722  0.6639  2.3821 -0.2724
 3296SOL    HW2 9945   0.253   2.688   2.680  0.4235 -3.4520  3.0077
 3297SOL     OW 9946   2.486   0.990   3.258  0.6168 -0.6150  0.5656
 3297SOL    HW1 9947   2.493   0.975   3.353  0.6617  1.0038  0.8470
 3297SOL    HW2 9948   2.564   1.042   3.237 -1.7842  3.4588  0.6466
 3298SOL     OW 9949   2.167   2.219   1.300 -0.2808  0.0847 -0.0571
 3298SOL    HW1 9950   2.115   2.299   1.313  0.2472  0.3572  0.4413
 3298SOL    HW2 9951   2.258   2.249   1.307 -0.0876 -0.7681  1.5622
 3299SOL     OW 9952   2.703   4.745   2.425 -0.0889 -0.1880 -0.3187
 3299SOL    HW1 9953   2.744   4.764   2.341  0.2559 -0.3132 -0.1821
 3299SOL    HW2 9954   2.740   4.660   2.451 -0.4877 -0.3359 -0.2260
 3300SOL     OW 9955   2.592   4.537   3.565 -0.5730 -0.1819 -0.3764
 3300SOL    HW1 9956   2.664   4.592   3.534 -0.2621  0.0916  0.8042
 3300SOL    HW2 9957   2.528   4.599   3.600 -1.2739 -0.4405 -1.1749
 3301SOL     OW 9958   3.411   2.268   2.945  0.8741  0.4015  0.2710
 3301SOL    HW1 9959   3.361   2.349   2.946  0.1593 -0.0351  1.1121
 3301SOL    HW2 9960   3.481   2.281   3.009  1.7131  0.9095 -0.7087
 3302SOL     OW 9961   1.649   4.214   3.950  0.0775  0.3520  0.1455
 3302SOL    HW1 9962   1.689   4.299   3.967  1.1445  0.2154 -1.4589
 3302SOL    HW2 9963   1.697   4.180   3.874 -2.3298 -0.3451 -1.1515
 3303SOL     OW 9964   2.340   1.506   1.331 -0.0790  0.1945 -0.2514
 3303SOL    HW1 9965   2.380   1.524   1.416  0.1394  0.5422 -0.4242
 3303SOL    HW2 9966   2.314   1.592   1.298 -0.7295 -0.0018 -0.2574
 3304SOL     OW 9967   3.573   4.496   1.138  0.3830 -0.4540 -0.1533
 3304SOL    HW1 9968   3.582   4.579   1.184  0.8049 -0.2470 -0.5983
 3304SOL    HW2 9969   3.494   4.507   1.085 -0.6994 -1.0695  1.2759
 3305SOL     OW 9970   1.932   0.184   3.689 -0.4503 -0.0692  0.4295
 3305SOL    HW1 9971   1.844   0.190   3.726  0.7350  1.4352  3.3531
 3305SOL    HW2 9972   1.953   0.274   3.664  0.8302 -0.0746  1.3845
 3306SOL     OW 9973   1.406   3.989   4.902  0.1537 -0.4903 -0.5387
 3306SOL    HW1 9974   1.379   4.081   4.912  0.0134 -0.6472  0.7926
 3306SOL    HW2 9975   1.365   3.945   4.977  0.1431 -1.6624 -1.2192
 3307SOL     OW 9976   3.602   3.806   2.539 -0.2159  0.4274 -0.1935
 3307SOL    HW1 9977   3.629   3.754   2.463  1.6590  1.8742 -0.5877
 3307SOL    HW2 9978   3.635   3.757   2.614 -1.1632 -0.4775 -0.3396
 3308SOL     OW 9979   2.191   0.110   3.847  0.3149 -0.0009 -0.7489
 3308SOL    HW1 9980   2.123   0.045   3.861  0.9854 -0.2822  1.6061
 3308SOL    HW2 9981   2.144   0.187   3.815 -1.0283 -0.3884  0.2093
 3309SOL     OW 9982   2.568   4.238   0.561  0.3891  0.1510 -0.0869
 3309SOL    HW1 9983   2.480   4.210   0.587  0.7816 -0.5799  0.5137
 3309SOL    HW2 9984   2.627   4.184   0.615  1.1982  1.0815 -0.0124
 3310SOL     OW 9985   2.794   1.015   0.807  0.4091  0.0436 -0.1393
 3310SOL    HW1 9986   2.715   0.985   0.851 -0.4194  2.3419  0.0819
 3310SOL    HW2 9987   2.842   0.935   0.785 -0.4851 -1.2988  2.4424
 3311SOL     OW 9988   1.640   0.445   3.352  0.9470  0.1881 -0.6608
 3311SOL    HW1 9989   1.607   0.521   3.400  1.0697 -0.5778  0.6788
 3311SOL    HW2 9990   1.663   0.382   3.420  2.4596 -0.4044 -1.6650
 3312SOL     OW 9991   3.529   2.639   1.756  0.2298  0.0153 -0.0633
 3312SOL    HW1 9992   3.541   2.706   1.823 -0.7394  1.8730 -1.6510
 3312SOL    HW2 9993   3.614   2.596   1.749  1.6869  2.7928 -0.7343
 3313SOL     OW 9994   3.771   3.712   1.637 -0.7361 -0.1355  0.7409
 3313SOL    HW1 9995   3.709   3.779   1.666 -1.3866 -0.4307  0.0583
 3313SOL    HW2 9996   3.716   3.643   1.601  0.0164 -0.2227 -0.2592
 3314SOL     OW 9997   1.182   0.835   3.808  0.2987 -1.0293 -0.0206
 3314SOL    HW1 9998   1.178   0.930   3.799  2.2779 -0.8287  0.6254
 3314SOL    HW2 9999   1.140   0.816   3.892  0.8945 -0.5815  0.3880
 3315SOL     OW10000   1.086   1.728   4.609  0.0092  0.5314  0.8630
 3315SOL    HW110001   1.058   1.757   4.695 -0.4319 -0.1518  0.9558
 3315SOL    HW210002   1.181   1.740   4.609 -0.2281  2.9553  0.5138
 3316SOL     OW10003   0.608   3.174   1.070  0.1116 -0.0574  0.1629
 3316SOL    HW110004   0.578   3.265   1.075 -0.9818 -0.3665 -0.4679
 3316SOL    HW210005   0.666   3.165   1.146 -0.5476  0.8859  0.8184
 3317SOL     OW10006   2.945   2.006   2.037 -0.1230 -0.2709 -0.3188
 3317SOL    HW110007   2.934   2.008   2.132  0.0648 -1.4292 -0.2597
 3317SOL    HW210008   2.856   1.995   2.003 -0.0391 -1.4747 -0.1927
 3318SOL     OW10009   1.730   0.038   0.404 -0.4167  0.2422  0.7376
 3318SOL    HW110010   1.728   0.096   0.328 -1.0334  1.3190  1.5585
 3318SOL    HW210011   1.823   0.021   0.419 -0.0043  3.2097  2.0973
 3319SOL     OW10012   4.141   3.202   2.751  0.7119  0.3923  0.2906
 3319SOL    HW110013   4.182   3.199   2.837  0.5432 -0.3063  0.3523
 3319SOL    HW210014   4.095   3.286   2.750 -1.2458 -0.5693  1.8236
 3320SOL     OW10015   2.647   1.920   3.729 -0.5652 -0.1599  0.4412
 3320SOL    HW110016   2.736   1.953   3.714  0.2042 -2.4638 -0.5203
 3320SOL    HW210017   2.611   1.907   3.642 -1.3874 -0.4046  0.8074
 3321SOL     OW10018   2.516   1.994   0.505  0.1774  0.4266 -0.0058
 3321SOL    HW110019   2.445   2.024   0.449 -0.0099 -1.3349 -0.7965
 3321SOL    HW210020   2.487   2.014   0.594 -0.3511  1.5978 -0.4178
 3322SOL     OW10021   1.083   3.084   3.498 -0.3250  0.1456  0.2652
 3322SOL    HW110022   1.035   3.002   3.509 -0.1112 -0.0235 -0.0425
 3322SOL    HW210023   1.154   3.062   3.437  0.6839  0.1760  1.3886
 3323SOL     OW10024   4.770   2.063   4.660  0.4311 -0.4992  0.0412
 3323SOL    HW110025   4.764   1.995   4.594  0.0315  0.9380 -1.4630
 3323SOL    HW210026   4.767   2.016   4.744 -3.5815 -2.1307 -0.8136
 3324SOL     OW10027   0.431   4.294   0.031 -0.5170 -0.4453  0.4213
 3324SOL    HW110028   0.486   4.234   0.082 -0.6670  0.0478  1.1785
 3324SOL    HW210029   0.483   4.374   0.024 -0.6269 -0.4061  0.0593
 3325SOL     OW10030   0.790   2.017   3.122  0.3125  0.0810 -0.4074
 3325SOL    HW110031   0.816   2.109   3.128  0.0114  0.1665 -0.4034
 3325SOL    HW210032   0.757   2.007   3.032  0.4230 -0.0436 -0.4346
 3326SOL     OW10033   2.871   3.433   1.352 -0.2520  0.0539  0.2008
 3326SOL    HW110034   2.949   3.452   1.299  0.7660 -1.0776  1.2427
 3326SOL    HW210035   2.902   3.438   1.443 -1.9376  1.8715  0.7489
 3327SOL     OW10036   1.658   1.798   0.307  0.1279 -0.1241 -0.3388
 3327SOL    HW110037   1.634   1.710   0.279  0.5029 -0.6258  0.8633
 3327SOL    HW210038   1.660   1.794   0.403 -1.4673  1.6323 -0.1803
 3328SOL     OW10039   3.860   2.575   4.750 -0.4094 -0.2414  0.1947
 3328SOL    HW110040   3.828   2.653   4.795 -2.0386 -0.2735 -0.8341
 3328SOL    HW210041   3.858   2.599   4.657 -0.3613 -1.3089 -0.0987
 3329SOL     OW10042   2.138   3.718   4.127 -0.4523 -0.2697  0.7700
 3329SOL    HW110043   2.223   3.715   4.171 -0.4387 -0.2109  0.7488
 3329SOL    HW210044   2.085   3.776   4.181  0.0608  1.0818 -0.1339
 3330SOL     OW10045   1.227   2.228   4.439  0.7098  0.3509  0.1439
 3330SOL    HW110046   1.136   2.206   4.420  0.4239  1.4711  0.1795
 3330SOL    HW210047   1.276   2.193   4.364  0.3947 -1.1340  0.5945
 3331SOL     OW10048   3.638   0.221   1.611 -0.4764  0.6191  0.4303
 3331SOL    HW110049   3.679   0.214   1.697 -2.8844  0.4064  1.6341
 3331SOL    HW210050   3.621   0.130   1.586 -1.1466  0.7481  0.4185
 3332SOL     OW10051   3.031   2.061   2.307 -0.1039 -0.3654 -0.6606
 3332SOL    HW110052   3.027   2.048   2.401 -0.3017 -0.2889 -0.6571
 3332SOL    HW210053   3.087   1.990   2.274 -0.3054 -0.5880 -0.5244
 3333SOL     OW10054   3.443   3.828   3.267 -0.1434  0.2382  0.1708
 3333SOL    HW110055   3.463   3.922   3.263  1.4117 -0.0505  0.5510
 3333SOL    HW210056   3.488   3.797   3.345 -0.8377 -0.7914  0.1790
 3334SOL     OW10057   1.794   4.088   2.708  0.7914  0.6064  0.1815
 3334SOL    HW110058   1.869   4.029   2.700  1.4512  1.6373 -3.2201
 3334SOL    HW210059   1.728   4.037   2.754  2.4626 -1.5224  0.4011
 3335SOL     OW10060   2.301   2.074   1.029 -0.1885 -0.0277  0.0296
 3335SOL    HW110061   2.318   2.099   1.120  0.1202  1.7725 -0.4791
 3335SOL    HW210062   2.357   1.998   1.014 -1.4253 -1.3473  1.7804
 3336SOL     OW10063   1.756   3.667   1.637 -0.2055  0.1740 -0.2713
 3336SOL    HW110064   1.850   3.668   1.653 -0.3688  0.4682  0.7300
 3336SOL    HW210065   1.717   3.652   1.723 -1.1137  1.2880 -0.4634
 3337SOL     OW10066   2.257   3.999   2.620 -0.1413  0.5202 -0.5504
 3337SOL    HW110067   2.335   3.945   2.607  0.3993  0.8891  0.9308
 3337SOL    HW210068   2.232   4.027   2.532 -0.7100 -2.4771 -1.4382
 3338SOL     OW10069   4.360   4.261   4.857  0.1929  0.3862 -0.3557
 3338SOL    HW110070   4.370   4.300   4.770 -0.2331  2.0784  0.3121
 3338SOL    HW210071   4.343   4.335   4.914  0.6932 -0.6713  1.2285
 3339SOL     OW10072   3.686   0.549   2.964  0.3862  0.7160 -0.1089
 3339SOL    HW110073   3.663   0.478   3.024 -0.4397  1.1533  0.1143
 3339SOL    HW210074   3.684   0.628   3.018 -0.6235  1.1469 -0.7516
 3340SOL     OW10075   2.601   1.729   0.494 -0.0813  0.3353  0.0774
 3340SOL    HW110076   2.558   1.814   0.493 -0.8457 -0.0009  1.4562
 3340SOL    HW210077   2.549   1.675   0.435  1.5993  1.2930 -2.4886
 3341SOL     OW10078   1.796   1.316   2.084  0.5175  0.0964 -0.6256
 3341SOL    HW110079   1.757   1.283   2.165 -0.3312 -0.2926 -1.1791
 3341SOL    HW210080   1.818   1.407   2.104 -1.0020  0.4412 -0.3833
 3342SOL     OW10081   1.851   4.435   4.283  0.1782 -0.2639  0.0567
 3342SOL    HW110082   1.914   4.364   4.293 -0.6624 -1.1283 -0.5313
 3342SOL    HW210083   1.875   4.499   4.351 -0.0736 -1.8900  1.7622
 3343SOL     OW10084   3.267   1.409   3.437 -0.0949 -0.2243  0.1640
 3343SOL    HW110085   3.292   1.360   3.359  1.5549 -0.0820  0.5716
 3343SOL    HW210086   3.303   1.497   3.422 -0.2020 -0.0574  0.8594
 3344SOL     OW10087   0.716   0.251   3.372  0.0703 -0.0763  0.3003
 3344SOL    HW110088   0.794   0.304   3.385  0.1819  0.0989 -0.9502
 3344SOL    HW210089   0.664   0.300   3.309 -0.0263 -1.2297 -0.5551
 3345SOL     OW10090   4.478   2.558   2.734 -0.3339  0.7351  0.2452
 3345SOL    HW110091   4.436   2.637   2.699 -2.4159  0.0992  1.0973
 3345SOL    HW210092   4.432   2.486   2.691  1.3147 -0.0454 -0.2742
 3346SOL     OW10093   4.539   2.385   0.906  0.1621  0.4134  0.4942
 3346SOL    HW110094   4.534   2.467   0.955  1.0980  0.6039  0.2799
 3346SOL    HW210095   4.520   2.409   0.816 -1.2448  0.1118  0.6824
 3347SOL     OW10096   4.506   0.511   3.374  0.0901  0.6781  0.2050
 3347SOL    HW110097   4.547   0.486   3.457 -1.6753 -1.9510  0.4088
 3347SOL    HW210098   4.549   0.457   3.308  0.4099  1.6248 -0.3837
 3348SOL     OW10099   4.179   0.361   1.284  0.3324  0.1512 -0.4076
 3348SOL    HW110100   4.140   0.287   1.329 -2.2003  0.6416 -1.6298
 3348SOL    HW210101   4.154   0.437   1.336  1.1967  0.3350 -0.2486
 3349SOL     OW10102   2.858   1.458   4.496 -0.0357  0.1591  0.3975
 3349SOL    HW110103   2.953   1.458   4.485 -0.2291  1.2439 -1.7062
 3349SOL    HW210104   2.826   1.402   4.426 -0.8567 -3.4853  3.3814
 3350SOL     OW10105   4.760   4.748   4.549 -0.1274 -0.0639 -0.1311
 3350SOL    HW110106   4.847   4.785   4.534 -0.2341  0.0436 -0.5004
 3350SOL    HW210107   4.726   4.731   4.461 -0.7749  0.5837 -0.0103
 3351SOL     OW10108   4.312   3.503   4.924  0.5331  0.3840  0.3059
 3351SOL    HW110109   4.328   3.410   4.907  2.3324  1.0287 -2.2976
 3351SOL    HW210110   4.219   3.516   4.904  0.1824 -0.9074  1.0594
 3352SOL     OW10111   3.964   1.484   4.859 -0.2714  0.0051 -0.1006
 3352SOL    HW110112   4.052   1.458   4.886 -0.9588 -0.0474  2.3513
 3352SOL    HW210113   3.978   1.551   4.793  1.5768 -1.2002 -1.0068
 3353SOL     OW10114   4.201   4.086   0.026  0.1591 -0.1876 -0.3820
 3353SOL    HW110115   4.242   4.129  -0.049 -0.8652  1.1780 -0.2079
 3353SOL    HW210116   4.244   4.001   0.032  1.1303  0.1753 -1.7467
 3354SOL     OW10117   2.963   4.861   1.229  0.0993 -0.5384 -0.3195
 3354SOL    HW110118   2.912   4.820   1.299 -0.6836  1.9702  0.6883
 3354SOL    HW210119   2.916   4.941   1.209  3.1032  1.4673  0.0035
 3355SOL     OW10120   2.072   0.660   3.856 -0.4216 -0.1434  0.3891
 3355SOL    HW110121   2.086   0.754   3.841 -0.6007 -0.1979 -0.1444
 3355SOL    HW210122   2.159   0.621   3.848 -0.5634 -0.2232 -0.9485
 3356SOL     OW10123   1.657   3.593   0.155  0.5713 -0.8208  0.0462
 3356SOL    HW110124   1.576   3.643   0.149  0.1668 -1.3055  1.2577
 3356SOL    HW210125   1.723   3.658   0.181 -0.0084 -0.9411  1.8994
 3357SOL     OW10126   0.382   1.252   3.847 -0.5547  0.6354 -0.2883
 3357SOL    HW110127   0.298   1.249   3.892 -1.2409 -0.4384 -1.5989
 3357SOL    HW210128   0.403   1.161   3.827  0.3715  0.9769 -0.9787
 3358SOL     OW10129   0.202   4.280   4.798  0.1536 -0.0060  0.0738
 3358SOL    HW110130   0.205   4.358   4.743  1.6555 -1.3515 -1.8927
 3358SOL    HW210131   0.275   4.291   4.859  0.4525  0.0710 -0.2938
 3359SOL     OW10132   1.543   3.347   2.598  0.0057 -0.0205  0.2905
 3359SOL    HW110133   1.464   3.392   2.569  0.7932  0.9576 -0.4194
 3359SOL    HW210134   1.519   3.309   2.683 -1.0750  0.6761  0.3254
 3360SOL     OW10135   1.397   2.544   0.655  0.0112 -0.0469 -0.6862
 3360SOL    HW110136   1.467   2.596   0.615  2.5807 -1.9564  1.0365
 3360SOL    HW210137   1.410   2.455   0.620  0.3706 -1.0714  1.8288
 3361SOL     OW10138   0.915   2.531   2.901  0.8474 -0.1593 -0.1381
 3361SOL    HW110139   0.875   2.466   2.843 -2.0413  2.0799 -0.9256
 3361SOL    HW210140   0.858   2.531   2.978 -0.5453  2.6819 -1.0095
 3362SOL     OW10141   3.927   1.915   1.507  0.0512 -0.7466 -0.3036
 3362SOL    HW110142   3.864   1.962   1.452 -0.3576 -0.8916  0.0333
 3362SOL    HW210143   3.917   1.824   1.481 -0.8904 -0.9535  0.7231
 3363SOL     OW10144   3.238   0.271   3.172  0.0863  0.0909  0.0136
 3363SOL    HW110145   3.168   0.330   3.143  0.2900 -0.2165 -1.1632
 3363SOL    HW210146   3.231   0.195   3.113  0.6946 -0.4436  0.6178
 3364SOL     OW10147   0.489   0.522   3.533 -0.0875 -0.3149 -0.4155
 3364SOL    HW110148   0.464   0.538   3.624  1.6848 -0.2962  0.0957
 3364SOL    HW210149   0.439   0.587   3.482  0.0709  0.6935  0.6906
 3365SOL     OW10150   1.033   3.555   3.641 -0.1405 -0.5696 -0.0248
 3365SOL    HW110151   0.961   3.562   3.579 -0.5378  0.5038  0.5383
 3365SOL    HW210152   0.994   3.517   3.720 -0.1271  0.0937  0.3111
 3366SOL     OW10153   2.541   0.021   3.623 -0.4427 -0.1188 -0.4030
 3366SOL    HW110154   2.455   0.047   3.591 -0.2515  1.2417  0.1234
 3366SOL    HW210155   2.523  -0.032   3.700 -0.8326 -1.4299 -1.3465
 3367SOL     OW10156   3.214   1.070   3.051 -0.2369 -0.0548  0.3348
 3367SOL    HW110157   3.256   1.076   2.965  1.7350  2.2457  1.3764
 3367SOL    HW210158   3.254   0.994   3.092 -1.6367 -1.5596 -0.9011
 3368SOL     OW10159   3.814   3.096   4.458  0.2501 -0.6343  0.0056
 3368SOL    HW110160   3.736   3.081   4.511  1.2883  0.6441  2.0158
 3368SOL    HW210161   3.881   3.040   4.497  1.7309  2.1992  1.8841
 3369SOL     OW10162   2.217   2.892   1.749  0.2942 -0.8357 -0.2986
 3369SOL    HW110163   2.158   2.950   1.699  0.2853 -0.4852  0.1176
 3369SOL    HW210164   2.227   2.815   1.692 -1.6753 -1.5342  0.2050
 3370SOL     OW10165   4.145   2.543   3.031 -0.0739  0.0246 -0.0336
 3370SOL    HW110166   4.112   2.522   2.943  0.3127 -1.3127  0.1172
 3370SOL    HW210167   4.193   2.465   3.058  0.3037  0.6373  1.1443
 3371SOL     OW10168   1.606   4.107   1.633 -0.2364 -0.2213 -0.3011
 3371SOL    HW110169   1.564   4.040   1.580 -0.7305 -1.3395  1.4168
 3371SOL    HW210170   1.645   4.059   1.706 -1.0198  1.3824  1.2408
 3372SOL     OW10171   3.687   3.664   1.032  0.4054  0.4484 -1.0827
 3372SOL    HW110172   3.684   3.740   1.091 -0.1252 -0.5349  0.2188
 3372SOL    HW210173   3.742   3.692   0.959  2.1275  1.3412  0.4556
 3373SOL     OW10174   4.786   3.661   4.483 -0.3013  0.2577 -0.3943
 3373SOL    HW110175   4.753   3.721   4.416  0.8917  1.0450 -0.3296
 3373SOL    HW210176   4.880   3.680   4.486 -0.1518 -0.5924  0.6780
 3374SOL     OW10177   3.715   4.458   1.605  0.5451  0.0676  0.1135
 3374SOL    HW110178   3.732   4.370   1.572  0.0152 -0.5787  1.4543
 3374SOL    HW210179   3.790   4.477   1.662  0.3216  0.1942  0.3665
 3375SOL     OW10180   4.289   3.432   4.144  0.0358  0.4421 -0.3353
 3375SOL    HW110181   4.284   3.509   4.088 -1.7989  0.9532  0.4479
 3375SOL    HW210182   4.231   3.368   4.103  1.1947 -0.3959 -0.7348
 3376SOL     OW10183   0.100   1.894   1.857  0.0054 -0.5788  0.3741
 3376SOL    HW110184   0.177   1.947   1.878 -0.1462 -0.0322 -0.4390
 3376SOL    HW210185   0.097   1.892   1.762  0.0558 -2.1298  0.3866
 3377SOL     OW10186   0.529   1.756   3.021 -0.1265 -0.7266 -0.4363
 3377SOL    HW110187   0.459   1.691   3.012 -1.8315  0.9868 -0.2338
 3377SOL    HW210188   0.500   1.830   2.968  1.5492  0.0521 -0.3339
 3378SOL     OW10189   0.639   0.341   0.513  0.1856  0.1762 -0.0672
 3378SOL    HW110190   0.711   0.335   0.450  0.2827  0.7494 -0.0104
 3378SOL    HW210191   0.639   0.432   0.542 -0.3523  0.1013  0.1839
 3379SOL     OW10192   4.150   4.712   2.766 -0.1107  0.1735  0.0132
 3379SOL    HW110193   4.167   4.736   2.858 -0.8263  0.4430  0.0803
 3379SOL    HW210194   4.210   4.767   2.716  2.3258 -1.8952  0.3990
 3380SOL     OW10195   1.250   4.571   3.488 -0.8159 -0.2132  0.6860
 3380SOL    HW110196   1.186   4.632   3.450 -1.2775 -0.9405  0.2749
 3380SOL    HW210197   1.275   4.612   3.571 -1.8534  0.0662  0.8752
 3381SOL     OW10198   3.825   4.433   2.210  0.4715 -0.5082 -0.0950
 3381SOL    HW110199   3.789   4.386   2.135 -0.4745 -0.4197  0.2935
 3381SOL    HW210200   3.757   4.427   2.277  1.7842 -1.6292  1.1920
 3382SOL     OW10201   3.021   2.899   3.208 -0.1073 -0.1030  0.1977
 3382SOL    HW110202   3.063   2.820   3.172 -0.0335 -0.3510  0.8191
 3382SOL    HW210203   2.928   2.878   3.211 -0.0334 -0.3633  0.8380
 3383SOL     OW10204   0.557   0.479   0.250 -0.6285 -0.0553  0.0887
 3383SOL    HW110205   0.575   0.571   0.233 -0.6988  0.5007  2.6416
 3383SOL    HW210206   0.635   0.433   0.220  0.1923  1.0520  0.4482
 3384SOL     OW10207   2.923   1.753   1.453 -0.0646 -0.1537 -0.2114
 3384SOL    HW110208   2.973   1.679   1.488  0.9408  0.5616 -0.0960
 3384SOL    HW210209   2.928   1.742   1.358  1.5852  0.6972 -0.2553
 3385SOL     OW10210   2.814   1.086   3.616  0.4603 -0.0333  0.0641
 3385SOL    HW110211   2.895   1.037   3.634 -0.0243 -1.7277 -1.8498
 3385SOL    HW210212   2.787   1.120   3.701  2.0326 -1.2701  1.1403
 3386SOL     OW10213   1.515   0.058   0.606  0.3368  0.4469 -0.0735
 3386SOL    HW110214   1.588   0.068   0.545  1.5838  1.5045  1.4952
 3386SOL    HW210215   1.524   0.131   0.667 -2.8895  1.4438 -0.5978
 3387SOL     OW10216   0.882   0.390   1.742  0.3354 -0.1817  0.0724
 3387SOL    HW110217   0.888   0.298   1.769 -0.7113  0.2693  2.0161
 3387SOL    HW210218   0.959   0.431   1.781 -0.7464  0.3130  1.7556
 3388SOL     OW10219   2.715   1.147   1.059  0.7100 -0.2235 -0.6894
 3388SOL    HW110220   2.726   1.213   1.127  0.3447 -1.2565  0.4031
 3388SOL    HW210221   2.803   1.112   1.044  0.7675 -0.0960 -0.6458
 3389SOL     OW10222   3.561   0.329   2.431  1.0628 -0.2133 -0.1102
 3389SOL    HW110223   3.502   0.354   2.360 -0.3868  0.8778  1.4010
 3389SOL    HW210224   3.633   0.282   2.387 -0.1682 -0.2972 -2.1752
 3390SOL     OW10225   2.474   0.207   0.238  0.4346  0.0307 -0.2860
 3390SOL    HW110226   2.398   0.250   0.276  1.8098  2.4076 -0.0158
 3390SOL    HW210227   2.517   0.163   0.312  0.4322  0.4478 -0.0331
 3391SOL     OW10228   3.691   2.795   3.931 -0.0590  0.0478  0.3697
 3391SOL    HW110229   3.748   2.829   3.999  0.8048 -1.9347  0.7087
 3391SOL    HW210230   3.736   2.716   3.899 -1.4650 -0.2442 -1.0280
 3392SOL     OW10231   4.296   0.071   1.223  0.0606  0.3285  0.2105
 3392SOL    HW110232   4.212   0.097   1.262 -0.1171 -0.7472  0.5820
 3392SOL    HW210233   4.327  -0.001   1.279  1.1619  0.6182 -0.0112
 3393SOL     OW10234   3.414   0.743   2.463  0.1003 -0.0573 -0.0732
 3393SOL    HW110235   3.361   0.726   2.540 -0.8488 -0.2477 -0.7446
 3393SOL    HW210236   3.354   0.787   2.402 -0.0096 -2.2722 -1.7209
 3394SOL     OW10237   2.373   4.858   3.792  0.2958 -0.0561  0.3719
 3394SOL    HW110238   2.341   4.815   3.871  1.3388  1.2004  1.5391
 3394SOL    HW210239   2.319   4.937   3.783  0.2892 -0.1068 -0.0654
 3395SOL     OW10240   2.599   0.111   0.810 -0.4545 -0.1402 -0.1821
 3395SOL    HW110241   2.692   0.104   0.831  0.2575  1.3285 -2.4883
 3395SOL    HW210242   2.581   0.033   0.758 -0.7961 -0.9034  1.0370
 3396SOL     OW10243   2.517   1.877   4.911 -0.7313  0.2164 -0.2372
 3396SOL    HW110244   2.493   1.791   4.878 -0.3597  0.1135 -0.2337
 3396SOL    HW210245   2.452   1.936   4.871 -1.4549 -0.1552  0.3643
 3397SOL     OW10246   1.183   4.024   0.349  0.3671 -0.5090  0.2158
 3397SOL    HW110247   1.111   4.062   0.300 -0.6525 -1.9681  0.5072
 3397SOL    HW210248   1.156   4.029   0.440  1.1088 -0.1319  0.4283
 3398SOL     OW10249   0.756   0.855   4.911  0.1566  0.2127  0.8386
 3398SOL    HW110250   0.813   0.918   4.867  0.0963  0.0327  0.4994
 3398SOL    HW210251   0.676   0.853   4.858  0.2917 -0.4072  0.6460
 3399SOL     OW10252   1.157   4.636   2.979 -0.2249  0.4196 -0.1202
 3399SOL    HW110253   1.074   4.663   2.940 -0.1361  0.1872 -0.4740
 3399SOL    HW210254   1.161   4.542   2.966 -0.6670  0.1719  1.3818
 3400SOL     OW10255   2.599   0.658   3.517  0.2931  0.1242 -0.0821
 3400SOL    HW110256   2.604   0.753   3.511 -0.1038  0.1222 -0.5538
 3400SOL    HW210257   2.691   0.629   3.523  0.4917  0.4793 -1.0942
 3401SOL     OW10258   4.428   0.030   2.386  0.6077  0.1277  0.4101
 3401SOL    HW110259   4.454   0.024   2.294  0.6210 -1.8131  0.5101
 3401SOL    HW210260   4.367   0.104   2.388 -0.0884 -0.3465 -1.3401
 3402SOL     OW10261   2.521   2.658   4.054 -0.3819 -0.2334 -0.7439
 3402SOL    HW110262   2.537   2.722   4.123 -0.0937 -1.0405 -0.0421
 3402SOL    HW210263   2.542   2.574   4.094  1.1058 -0.6285 -2.2110
 3403SOL     OW10264   3.944   4.448   4.721 -0.3339 -0.1331 -0.2310
 3403SOL    HW110265   3.938   4.401   4.805 -1.9257 -0.4589 -0.5006
 3403SOL    HW210266   3.858   4.489   4.710  0.0370  0.3492 -1.4564
 3404SOL     OW10267   2.384   1.206   2.357  0.5357  0.4814  0.0828
 3404SOL    HW110268   2.334   1.139   2.406 -3.0617  3.1490  0.4907
 3404SOL    HW210269   2.386   1.282   2.416  0.6409  2.1289 -1.9514
 3405SOL     OW10270   0.535   1.695   3.761  0.2345 -0.4617 -0.1960
 3405SOL    HW110271   0.455   1.642   3.765  0.7075 -1.1039  1.4676
 3405SOL    HW210272   0.505   1.785   3.771 -0.2522 -0.7556  1.1947
 3406SOL     OW10273   0.793   3.864   3.216 -0.3719  0.5100  0.2790
 3406SOL    HW110274   0.823   3.874   3.307  1.9097  2.3912 -0.5689
 3406SOL    HW210275   0.860   3.810   3.175  0.1852  2.0488 -0.9174
 3407SOL     OW10276   2.932   2.019   1.092  0.0370  0.1087 -0.1772
 3407SOL    HW110277   2.926   2.113   1.080 -0.4702  0.1387  0.2880
 3407SOL    HW210278   2.843   1.986   1.078  0.4288 -0.4428 -1.4677
 3408SOL     OW10279   0.948   4.706   0.284 -0.2087 -0.1119 -0.1636
 3408SOL    HW110280   1.020   4.724   0.344 -0.4729  0.5673 -0.0399
 3408SOL    HW210281   0.897   4.637   0.327  0.5915 -0.8901 -0.4469
 3409SOL     OW10282   4.095   4.775   3.395 -0.2698  0.5174 -0.3388
 3409SOL    HW110283   4.143   4.700   3.359 -0.2767  1.2366 -1.9147
 3409SOL    HW210284   4.006   4.765   3.362 -0.8348  0.0823  1.2310
 3410SOL     OW10285   0.825   2.450   4.304  0.0445 -0.2218  0.2123
 3410SOL    HW110286   0.870   2.534   4.316  0.0444  0.2449 -2.4076
 3410SOL    HW210287   0.737   2.466   4.336  0.6130  0.0968  1.6977
 3411SOL     OW10288   1.729   3.473   1.215  0.2430 -0.1268  0.8101
 3411SOL    HW110289   1.728   3.403   1.149 -0.0983 -0.1797  0.8685
 3411SOL    HW210290   1.811   3.461   1.263  0.0280 -0.6906  1.0388
 3412SOL     OW10291   4.905   3.948   2.141 -0.5412 -0.1339 -0.2103
 3412SOL    HW110292   4.904   3.866   2.092 -4.5890  0.5664 -1.7047
 3412SOL    HW210293   4.911   4.016   2.074 -1.2251  0.7834  0.6294
 3413SOL     OW10294   3.733   0.182   3.852 -0.1146  0.0729  0.5848
 3413SOL    HW110295   3.724   0.198   3.946  0.4671 -1.2335  0.8877
 3413SOL    HW210296   3.827   0.167   3.838 -0.2580 -0.2501 -0.1130
 3414SOL     OW10297   0.707   3.201   4.566 -0.3353  0.3156 -0.4682
 3414SOL    HW110298   0.713   3.172   4.657  2.0523  3.5328  0.5950
 3414SOL    HW210299   0.786   3.253   4.552 -1.0976  0.7714 -4.1127
 3415SOL     OW10300   1.769   3.292   0.104 -0.1596  0.2186  0.0990
 3415SOL    HW110301   1.751   3.381   0.137  3.3000  0.7898  0.8612
 3415SOL    HW210302   1.774   3.238   0.183  1.1873  0.0973 -0.0570
 3416SOL     OW10303   2.478   1.029   1.769  0.3266 -0.1290 -0.1181
 3416SOL    HW110304   2.395   1.070   1.794  0.3534  0.4950 -0.9880
 3416SOL    HW210305   2.544   1.073   1.823  0.2603  0.4637 -0.5038
 3417SOL     OW10306   0.862   0.453   0.285  0.0417 -0.8146 -0.0876
 3417SOL    HW110307   0.882   0.397   0.210 -0.6030 -0.6248 -0.4092
 3417SOL    HW210308   0.879   0.542   0.253 -1.4031 -0.6405 -0.4139
 3418SOL     OW10309   2.057   0.190   2.473  0.1605 -0.4357 -0.0003
 3418SOL    HW110310   2.093   0.266   2.426  1.0013 -1.4474 -1.0531
 3418SOL    HW210311   2.129   0.128   2.476 -0.0541 -0.6270  2.2148
 3419SOL     OW10312   1.387   1.038   2.476  0.0266  0.0175  0.1065
 3419SOL    HW110313   1.468   0.996   2.446  0.4283  0.2604  0.8239
 3419SOL    HW210314   1.405   1.060   2.567 -0.9967 -0.2914  0.3897
 3420SOL     OW10315   0.499   0.904   4.456  0.2794  0.3818  0.2645
 3420SOL    HW110316   0.585   0.872   4.482 -0.7151 -0.3728  3.0373
 3420SOL    HW210317   0.453   0.826   4.424  0.5273  0.7419 -1.0144
 3421SOL     OW10318   3.711   1.987   1.366  0.2174 -0.0633 -0.7395
 3421SOL    HW110319   3.628   2.023   1.332 -0.1451 -1.5074 -1.4417
 3421SOL    HW210320   3.779   2.041   1.325 -0.3100  3.5128  2.5031
 3422SOL     OW10321   0.249   2.577   1.752 -0.0685 -0.5813 -0.1686
 3422SOL    HW110322   0.223   2.555   1.842  0.2850  0.1196  0.1150
 3422SOL    HW210323   0.320   2.640   1.763 -0.8967  0.5238 -0.9422
 3423SOL     OW10324   1.877   0.088   1.427  0.0300  0.2024 -0.4273
 3423SOL    HW110325   1.944   0.037   1.382 -0.2662 -1.7670  1.2423
 3423SOL    HW210326   1.801   0.085   1.369  0.3024 -0.4869 -0.7553
 3424SOL     OW10327   0.835   4.316   4.427  0.5888 -0.3874 -0.2938
 3424SOL    HW110328   0.852   4.320   4.521  0.6752  1.2264 -0.3519
 3424SOL    HW210329   0.885   4.389   4.390 -2.5560  1.6074 -1.0516
 3425SOL     OW10330   1.600   2.771   4.933  0.2717 -0.5769 -0.5036
 3425SOL    HW110331   1.515   2.814   4.940  0.5219 -0.1803  0.2459
 3425SOL    HW210332   1.582   2.689   4.888 -0.5175 -0.5275 -0.2901
 3426SOL     OW10333   0.371   1.959   3.764 -0.7679  0.1933  0.3270
 3426SOL    HW110334   0.413   1.940   3.680 -0.9655 -0.7279  0.4260
 3426SOL    HW210335   0.433   2.018   3.808 -0.4513  0.3279 -0.2729
 3427SOL     OW10336   2.977   0.922  -0.005 -0.1185  0.1929  0.5595
 3427SOL    HW110337   2.935   0.843   0.028 -1.9944  1.0936  0.4767
 3427SOL    HW210338   2.951   0.991   0.057  0.0394  1.0677 -0.3189
 3428SOL     OW10339   2.495   2.830   3.401  0.3016 -0.4250 -0.4231
 3428SOL    HW110340   2.557   2.801   3.468  0.6037  0.1573 -0.4400
 3428SOL    HW210341   2.428   2.877   3.449 -0.2532 -1.2363 -0.3820
 3429SOL     OW10342   2.656   1.389   2.473  0.1644  0.3147 -0.5640
 3429SOL    HW110343   2.616   1.376   2.387 -2.5827  0.1722  0.6508
 3429SOL    HW210344   2.653   1.484   2.487 -0.4455  0.2451 -0.1810
 3430SOL     OW10345   0.573   2.099   0.599  0.4895  0.4728  0.7615
 3430SOL    HW110346   0.634   2.115   0.528 -0.5468 -0.8501 -0.4963
 3430SOL    HW210347   0.583   2.006   0.619 -2.8660 -0.5508 -1.3626
 3431SOL     OW10348   1.365   1.477   2.321 -0.2450 -0.7814  0.0953
 3431SOL    HW110349   1.376   1.466   2.416 -0.3127 -0.9116  0.0882
 3431SOL    HW210350   1.360   1.388   2.287 -0.1497 -0.7348 -0.0393
 3432SOL     OW10351   3.590   3.889   1.788 -0.6169 -0.1062  0.2770
 3432SOL    HW110352   3.630   3.976   1.793 -0.2897 -0.0754 -1.9173
 3432SOL    HW210353   3.549   3.886   1.702 -0.9239 -2.0047  0.4430
 3433SOL     OW10354   2.188   4.804   0.119 -0.1487 -0.2672 -0.1960
 3433SOL    HW110355   2.229   4.790   0.034 -0.6530 -0.3964 -0.4176
 3433SOL    HW210356   2.262   4.822   0.178  0.1394  0.9551 -0.8811
 3434SOL     OW10357   3.404   2.172   2.348 -0.6825 -0.3614 -0.1971
 3434SOL    HW110358   3.454   2.166   2.267 -1.0639 -0.4793 -0.4278
 3434SOL    HW210359   3.442   2.246   2.395 -0.4946 -0.2617 -0.5067
 3435SOL     OW10360   4.126   1.241   2.167  0.2296 -0.2531 -0.6715
 3435SOL    HW110361   4.188   1.242   2.240  0.0537  2.9375 -0.4091
 3435SOL    HW210362   4.041   1.224   2.209  0.6591 -3.4895 -0.8916
 3436SOL     OW10363   2.419   4.814   0.277  0.4930 -0.2728 -0.0080
 3436SOL    HW110364   2.489   4.864   0.319  0.5617  0.2906 -0.7702
 3436SOL    HW210365   2.464   4.760   0.213  0.0684  2.0287 -2.4045
 3437SOL     OW10366   3.439   3.099   2.845 -0.6754 -0.1725  0.7509
 3437SOL    HW110367   3.436   3.165   2.776  1.6917  0.5722  1.2521
 3437SOL    HW210368   3.375   3.033   2.818 -1.2431  1.0478 -1.1098
 3438SOL     OW10369   0.734   0.607   0.534 -0.2600  0.2456 -0.3859
 3438SOL    HW110370   0.761   0.656   0.457 -1.2002 -1.3552 -1.8131
 3438SOL    HW210371   0.656   0.654   0.566 -0.3407  0.4591 -0.8936
 3439SOL     OW10372   2.239   3.731   3.418 -0.2287 -0.2296 -0.4204
 3439SOL    HW110373   2.234   3.826   3.432  1.6758  0.2439 -2.4250
 3439SOL    HW210374   2.267   3.696   3.503 -2.4634  0.7483  0.8181
 3440SOL     OW10375   1.142   1.810   3.868  0.7235  0.5394 -0.2454
 3440SOL    HW110376   1.146   1.784   3.776  0.9773 -1.5407  0.2869
 3440SOL    HW210377   1.157   1.728   3.916 -3.6249  0.6120  1.6936
 3441SOL     OW10378   3.970   4.270   0.322 -0.6288  0.5315 -0.5056
 3441SOL    HW110379   3.939   4.188   0.361 -0.8450 -0.0903 -1.9261
 3441SOL    HW210380   3.898   4.332   0.335 -2.0770 -0.5599 -2.6858
 3442SOL     OW10381   0.039   0.801   0.338  0.1596 -0.4828 -0.3478
 3442SOL    HW110382  -0.007   0.809   0.421 -0.6551 -0.4050 -0.7983
 3442SOL    HW210383  -0.004   0.729   0.293 -0.7643  0.7494 -1.5358
 3443SOL     OW10384   1.374   0.523   4.442  0.4245 -0.0027  0.2004
 3443SOL    HW110385   1.377   0.555   4.352 -1.2369  2.0610  0.8068
 3443SOL    HW210386   1.348   0.431   4.434 -2.1125  0.7473 -1.3966
 3444SOL     OW10387   1.232   2.802   2.212  0.6995  0.0749  0.4473
 3444SOL    HW110388   1.141   2.821   2.234  1.3574  1.0058  2.5997
 3444SOL    HW210389   1.228   2.719   2.163 -1.2293 -0.2225  1.0271
 3445SOL     OW10390   3.126   1.352   2.601 -0.0225 -0.6821 -0.2134
 3445SOL    HW110391   3.078   1.427   2.566 -0.4267 -1.4167 -1.2942
 3445SOL    HW210392   3.080   1.329   2.682 -1.5369 -1.3636 -1.2185
 3446SOL     OW10393   1.958   4.243   0.721 -0.1124  0.8271 -0.3491
 3446SOL    HW110394   1.893   4.210   0.658 -0.3671 -0.2512  0.4490
 3446SOL    HW210395   1.954   4.338   0.712 -0.8970  0.7287 -1.2099
 3447SOL     OW10396   4.287   3.452   3.522  0.0734  0.2319 -0.0892
 3447SOL    HW110397   4.272   3.516   3.453 -0.2887  1.2605  0.9129
 3447SOL    HW210398   4.381   3.456   3.537 -0.1585  1.9681  1.2593
 3448SOL     OW10399   3.701   4.752   2.313  0.1017  0.1772  0.0702
 3448SOL    HW110400   3.652   4.760   2.395 -0.4440  4.1461 -0.4516
 3448SOL    HW210401   3.789   4.727   2.340 -0.1397  1.1235  1.8935
 3449SOL     OW10402   2.278   3.342   1.526 -0.0007  0.3982  0.3116
 3449SOL    HW110403   2.320   3.308   1.447 -3.1456 -2.1630 -0.4487
 3449SOL    HW210404   2.261   3.434   1.506  0.3381  0.1078 -1.5198
 3450SOL     OW10405   2.438   0.467   0.662  0.0902  0.0923  0.6913
 3450SOL    HW110406   2.425   0.373   0.657  0.6491  0.0349  0.0878
 3450SOL    HW210407   2.355   0.502   0.693 -0.4963 -0.4992 -0.1836
 3451SOL     OW10408   4.616   1.885   0.549 -0.4131 -0.5466 -0.1447
 3451SOL    HW110409   4.617   1.831   0.628 -0.0953 -0.9694 -0.4382
 3451SOL    HW210410   4.596   1.973   0.581  1.2288 -0.4034  0.5914
 3452SOL     OW10411   2.803   1.284   2.130  0.0716  0.2146  0.1286
 3452SOL    HW110412   2.846   1.276   2.216  0.2598  1.8366  0.2051
 3452SOL    HW210413   2.806   1.377   2.110 -0.1091 -0.1239 -1.5931
 3453SOL     OW10414   0.331   2.335   4.092  0.2488  0.1051 -0.1012
 3453SOL    HW110415   0.278   2.410   4.067 -0.6219  0.3756  2.3003
 3453SOL    HW210416   0.398   2.371   4.151 -0.7829 -1.0424  1.8807
 3454SOL     OW10417   3.921   3.921   4.809 -0.2308  0.3288 -0.7436
 3454SOL    HW110418   3.859   3.965   4.751  0.3032  0.5753 -1.1350
 3454SOL    HW210419   3.997   3.980   4.811 -0.3023  0.4072  0.3317
 3455SOL     OW10420   4.292   0.284   0.384 -0.1589 -0.1781 -0.5425
 3455SOL    HW110421   4.329   0.204   0.345 -1.0636 -0.3314 -1.1354
 3455SOL    HW210422   4.216   0.252   0.434 -0.9012  0.3617 -1.2971
 3456SOL     OW10423   1.281   2.885   2.893  0.7091  0.0550  0.4827
 3456SOL    HW110424   1.189   2.861   2.891  0.7837 -0.2285 -0.9342
 3456SOL    HW210425   1.312   2.857   2.979 -0.0504 -1.7234  0.2156
 3457SOL     OW10426   0.175   1.464   3.395  0.2658 -0.1322  0.5502
 3457SOL    HW110427   0.171   1.389   3.454 -0.6643  0.5060  1.3355
 3457SOL    HW210428   0.085   1.474   3.363  0.4575  0.4200  0.1660
 3458SOL     OW10429   0.041   4.293   4.496  0.3488 -0.5892  0.2801
 3458SOL    HW110430   0.069   4.265   4.583  1.1419 -0.9488 -0.0850
 3458SOL    HW210431   0.110   4.352   4.466 -0.5201  0.5076  0.3798
 3459SOL     OW10432   0.253   0.728   0.621 -0.0967  0.2573  0.3190
 3459SOL    HW110433   0.169   0.689   0.596 -0.4371  1.1618  0.0256
 3459SOL    HW210434   0.315   0.694   0.556  0.0524 -1.4562  1.3012
 3460SOL     OW10435   4.194   2.374   4.686  0.2305 -0.1720  0.6542
 3460SOL    HW110436   4.270   2.430   4.672  0.8574 -1.2478 -0.4910
 3460SOL    HW210437   4.150   2.371   4.601  0.8680 -2.2830  0.3237
 3461SOL     OW10438   4.641   0.461   3.651  0.5360 -0.3230  0.2393
 3461SOL    HW110439   4.708   0.410   3.606  0.4153  0.1387 -0.4673
 3461SOL    HW210440   4.575   0.396   3.678  0.5748 -0.5905 -0.3060
 3462SOL     OW10441   3.849   1.485   2.877 -0.3853  0.3825  0.8804
 3462SOL    HW110442   3.871   1.541   2.803 -0.6150 -1.4251 -0.6297
 3462SOL    HW210443   3.763   1.515   2.905 -0.8173  0.3321 -0.3579
 3463SOL     OW10444   3.236   1.145   2.129 -0.0058 -0.1750 -0.0800
 3463SOL    HW110445   3.171   1.127   2.062 -1.4594  0.7683  1.0240
 3463SOL    HW210446   3.211   1.230   2.165  1.2462 -0.2520  1.0539
 3464SOL     OW10447   1.088   4.817   3.425 -0.0805 -0.0080  0.0875
 3464SOL    HW110448   1.052   4.778   3.505 -0.4029  1.6493  0.8093
 3464SOL    HW210449   1.169   4.859   3.454  1.3581 -1.8378 -1.0821
 3465SOL     OW10450   4.890   1.827   2.889  0.2791 -0.1007 -0.1105
 3465SOL    HW110451   4.884   1.912   2.933  0.8004  0.8598 -1.8043
 3465SOL    HW210452   4.902   1.764   2.960  0.2867  1.2842  1.1654
 3466SOL     OW10453   2.925   0.015   0.221 -0.6735  0.1860 -0.3068
 3466SOL    HW110454   2.988   0.057   0.280  1.2736 -0.7396 -1.5962
 3466SOL    HW210455   2.911   0.079   0.151  0.2963 -0.2585 -0.9418
 3467SOL     OW10456   1.678   3.099   3.580 -0.6732 -0.0548  0.3394
 3467SOL    HW110457   1.584   3.115   3.575 -0.4948  0.7401 -3.1200
 3467SOL    HW210458   1.717   3.186   3.573  0.2567 -0.5624 -1.5176
 3468SOL     OW10459   0.471   3.951   2.703  0.0632  0.2056  0.1043
 3468SOL    HW110460   0.419   4.010   2.758 -0.6695  0.2233 -0.5891
 3468SOL    HW210461   0.429   3.955   2.617  1.7689  0.9334 -0.7386
 3469SOL     OW10462   4.024   2.295   2.482 -0.2486 -0.4312  0.2194
 3469SOL    HW110463   4.059   2.348   2.554  1.4506 -0.1902 -0.7158
 3469SOL    HW210464   4.069   2.328   2.404 -0.3681 -2.1505 -0.6349
 3470SOL     OW10465   1.865   2.371   1.664 -0.4760 -0.4122 -0.1433
 3470SOL    HW110466   1.861   2.465   1.648  1.2291 -0.1291  0.9162
 3470SOL    HW210467   1.787   2.353   1.716 -1.9504 -0.0123 -2.0782
 3471SOL     OW10468   4.552   1.982   3.868 -0.7640 -0.4731 -0.2122
 3471SOL    HW110469   4.496   2.048   3.828  0.6095  0.4489 -0.7080
 3471SOL    HW210470   4.569   2.016   3.956  1.5884  0.9942 -1.1180
 3472SOL     OW10471   1.106   4.851   2.441 -0.5399 -0.3966  0.4361
 3472SOL    HW110472   1.189   4.808   2.420 -2.4699 -2.9946 -3.0746
 3472SOL    HW210473   1.098   4.921   2.376 -1.5336 -0.9532 -0.0769
 3473SOL     OW10474   1.964   1.361   1.042  0.5431  0.6312 -0.0125
 3473SOL    HW110475   1.871   1.383   1.032 -0.1393 -1.4815  1.0767
 3473SOL    HW210476   2.007   1.403   0.968 -1.2419  1.8571 -0.4133
 3474SOL     OW10477   2.339   0.185   1.265  0.1112 -0.2507  0.0868
 3474SOL    HW110478   2.360   0.116   1.201  1.5700 -1.5735  1.8820
 3474SOL    HW210479   2.411   0.247   1.257 -0.4212  0.3028 -0.4827
 3475SOL     OW10480   4.399   4.542   4.917  0.0772  0.0314  0.6187
 3475SOL    HW110481   4.372   4.632   4.898  0.1291  0.1035  0.8667
 3475SOL    HW210482   4.381   4.532   5.011 -0.4245 -0.3952  0.4791
 3476SOL     OW10483   0.570   4.597   0.578 -0.4488 -0.0783  0.2020
 3476SOL    HW110484   0.566   4.503   0.593  0.0435 -0.0811  0.3207
 3476SOL    HW210485   0.521   4.611   0.496 -0.6786 -0.4114  0.2844
 3477SOL     OW10486   1.065   2.781   0.474 -0.3750  0.2058 -0.6086
 3477SOL    HW110487   1.086   2.709   0.533 -0.5700  0.3082 -0.4082
 3477SOL    HW210488   1.093   2.859   0.522  0.1502  0.2454 -0.9670
 3478SOL     OW10489   0.818   1.511   3.603  0.1369  0.2540 -0.2637
 3478SOL    HW110490   0.831   1.570   3.677 -1.1816 -0.0862  0.2630
 3478SOL    HW210491   0.773   1.564   3.538  0.4959  0.2981 -0.4823
 3479SOL     OW10492   4.710   3.892   3.589  0.0623  0.9484 -0.3928
 3479SOL    HW110493   4.795   3.899   3.632  0.1605  0.5363 -0.5160
 3479SOL    HW210494   4.728   3.912   3.497  0.1241  0.3603 -0.5160
 3480SOL     OW10495   2.901   4.598   1.773 -0.2797  0.0081 -0.6026
 3480SOL    HW110496   2.832   4.580   1.709  0.3446  0.3576 -1.3917
 3480SOL    HW210497   2.935   4.684   1.748  0.6236 -0.2789 -0.4027
 3481SOL     OW10498   2.833   4.694   0.314  0.4640 -0.2554  0.6177
 3481SOL    HW110499   2.825   4.781   0.274  3.1242  0.2283  0.8974
 3481SOL    HW210500   2.859   4.637   0.242  0.8012 -0.3574  0.8186
 3482SOL     OW10501   0.789   1.522   3.200  0.0991 -0.0509 -0.4238
 3482SOL    HW110502   0.752   1.543   3.285  0.0299 -0.0931 -0.4435
 3482SOL    HW210503   0.746   1.582   3.139 -0.7369 -0.8309 -0.6145
 3483SOL     OW10504   3.249   3.666   0.994  0.2920 -0.6322  0.3894
 3483SOL    HW110505   3.192   3.733   0.956  0.7039 -0.0868  0.7305
 3483SOL    HW210506   3.321   3.658   0.931 -1.0530 -2.6809 -1.0304
 3484SOL     OW10507   2.129   0.328   1.937  0.3048  0.7434  0.4177
 3484SOL    HW110508   2.120   0.239   1.971  1.0098 -0.0323 -1.2731
 3484SOL    HW210509   2.105   0.320   1.844  1.3462  2.1072 -0.0022
 3485SOL     OW10510   4.304   3.838   0.365 -0.1936  0.3866 -0.5836
 3485SOL    HW110511   4.372   3.800   0.421 -0.9372 -1.4035 -0.8268
 3485SOL    HW210512   4.230   3.850   0.424 -0.4107  0.1445 -0.8048
 3486SOL     OW10513   3.156   0.585   1.902 -0.6674 -0.1972 -0.0331
 3486SOL    HW110514   3.196   0.578   1.989  1.1123  1.3059 -0.6691
 3486SOL    HW210515   3.122   0.497   1.885  1.3108 -1.2741  1.1077
 3487SOL     OW10516   3.682   1.086   2.339 -0.1037  0.0427 -0.0379
 3487SOL    HW110517   3.734   1.044   2.270  1.6045  0.4265  0.9410
 3487SOL    HW210518   3.697   1.031   2.417  0.1135  1.0304  0.6379
 3488SOL     OW10519   0.042   4.859   4.545 -0.2647 -0.4978 -0.1091
 3488SOL    HW110520   0.105   4.818   4.485  0.8381  1.0433 -0.0500
 3488SOL    HW210521   0.084   4.941   4.572 -0.6907 -1.1375  2.8261
 3489SOL     OW10522   1.600   1.862   4.564 -0.1036  0.1209  0.3102
 3489SOL    HW110523   1.690   1.836   4.585  0.6951  1.8721 -0.7049
 3489SOL    HW210524   1.598   1.956   4.579 -1.6486  0.1850 -0.1177
 3490SOL     OW10525   4.693   2.652   4.753  0.1918  0.2149  0.0310
 3490SOL    HW110526   4.661   2.692   4.835  0.6469  1.8627 -0.5457
 3490SOL    HW210527   4.760   2.590   4.781 -0.9108 -0.5722  1.0094
 3491SOL     OW10528   4.116   0.722   4.694  0.2229  0.0146 -0.1211
 3491SOL    HW110529   4.193   0.719   4.638  1.7626 -2.6259  1.8510
 3491SOL    HW210530   4.105   0.814   4.716  2.0561  0.6070 -1.4764
 3492SOL     OW10531   1.497   4.728   3.350 -0.2333  0.1346 -0.2830
 3492SOL    HW110532   1.463   4.793   3.412 -0.1557 -0.4477  0.3782
 3492SOL    HW210533   1.497   4.646   3.399 -1.4042 -0.6061 -1.4744
 3493SOL     OW10534   4.036   0.214   4.131 -0.3454  0.2714  0.3861
 3493SOL    HW110535   4.040   0.300   4.089  0.5518 -0.0773 -0.2825
 3493SOL    HW210536   4.122   0.204   4.173 -0.7496  0.0476  1.1790
 3494SOL     OW10537   2.664   1.657   3.395 -0.7342  0.1825  0.2757
 3494SOL    HW110538   2.601   1.704   3.448 -0.6526 -0.2920  0.8019
 3494SOL    HW210539   2.675   1.573   3.439  2.4270  1.2761  1.8947
 3495SOL     OW10540   2.154   2.177   0.525 -0.0208  0.0312 -0.0513
 3495SOL    HW110541   2.160   2.105   0.588 -0.7024 -0.4097 -0.4791
 3495SOL    HW210542   2.215   2.153   0.455 -1.1339 -0.7335 -0.7739
 3496SOL     OW10543   2.366   0.578   2.573  0.2862  0.0202  0.0178
 3496SOL    HW110544   2.451   0.533   2.579  1.0291  1.4737  0.9383
 3496SOL    HW210545   2.310   0.529   2.634  0.4095 -1.0141 -0.6715
 3497SOL     OW10546   0.234   0.654   3.985  0.4117 -0.2216  0.1529
 3497SOL    HW110547   0.207   0.705   3.908 -1.7651 -0.1625  0.9128
 3497SOL    HW210548   0.223   0.563   3.958 -1.1467 -0.1939  0.6303
 3498SOL     OW10549   2.612   4.350   3.926 -0.1508 -0.0928 -0.3294
 3498SOL    HW110550   2.692   4.330   3.877 -0.5378  1.1735 -1.5154
 3498SOL    HW210551   2.609   4.445   3.929 -1.3272 -0.1381  0.2061
 3499SOL     OW10552   2.578   2.256   3.335 -0.3317  0.3204  0.8305
 3499SOL    HW110553   2.656   2.272   3.388 -0.6542  0.6986  1.2016
 3499SOL    HW210554   2.514   2.220   3.397  0.1776 -1.9514  0.1455
 3500SOL     OW10555   0.478   0.288   2.883 -0.2344  0.2843 -0.1505
 3500SOL    HW110556   0.523   0.293   2.799 -2.1578  0.4841 -1.2318
 3500SOL    HW210557   0.518   0.214   2.927  1.3870  0.6900 -0.8753
 3501SOL     OW10558   3.382   1.988   0.094 -0.0966 -0.2533  0.5549
 3501SOL    HW110559   3.438   1.919   0.059 -0.8580 -0.3567 -0.5421
 3501SOL    HW210560   3.298   1.945   0.111 -1.0610  0.6364 -1.5648
 3502SOL     OW10561   3.215   1.246   0.042  0.3614 -0.4188  0.1085
 3502SOL    HW110562   3.231   1.155   0.018  0.4375 -0.6859  1.1182
 3502SOL    HW210563   3.241   1.296  -0.035  2.0257 -1.1218  0.1644
 3503SOL     OW10564   3.011   1.529   2.428  0.2572 -0.4396 -0.3802
 3503SOL    HW110565   3.089   1.579   2.454  0.0155 -0.4068  0.2888
 3503SOL    HW210566   2.943   1.596   2.415 -0.7876 -0.6736  2.9494
 3504SOL     OW10567   4.355   3.240   3.748 -0.3197 -0.0501  0.5869
 3504SOL    HW110568   4.446   3.260   3.768 -0.2107 -0.7934  0.8691
 3504SOL    HW210569   4.336   3.289   3.669  0.8467 -1.2023 -0.4611
 3505SOL     OW10570   1.932   4.052   3.055  0.1480  0.1659 -0.1733
 3505SOL    HW110571   1.861   4.115   3.071  0.0275  0.0698 -0.3287
 3505SOL    HW210572   1.950   4.060   2.961 -0.2369 -0.4195 -0.3036
 3506SOL     OW10573   3.840   0.925   2.014 -0.3120  0.0103  0.4048
 3506SOL    HW110574   3.882   1.009   1.994 -0.6195  0.1540  0.3557
 3506SOL    HW210575   3.808   0.893   1.930  0.6602 -0.6366  0.2576
 3507SOL     OW10576   1.270   0.030   0.521 -0.1326  0.1464 -0.3930
 3507SOL    HW110577   1.236   0.118   0.538  0.7262  0.5443 -0.6794
 3507SOL    HW210578   1.360   0.032   0.554  0.0295 -0.4933 -0.7732
 3508SOL     OW10579   3.403   2.035   1.496  0.1102  0.0983  0.3140
 3508SOL    HW110580   3.447   2.089   1.430  0.7541 -0.9336 -0.1260
 3508SOL    HW210581   3.438   1.947   1.481 -0.2870 -0.2813  1.5609
 3509SOL     OW10582   2.341   2.601   1.859  0.2946  0.8098  0.0879
 3509SOL    HW110583   2.308   2.619   1.771 -0.3578 -1.1371 -0.1019
 3509SOL    HW210584   2.266   2.565   1.906  0.9504  0.7304  1.0972
 3510SOL     OW10585   0.792   0.233   4.034  0.0127 -0.3137 -0.5576
 3510SOL    HW110586   0.876   0.278   4.037  1.2496 -2.4823  1.9520
 3510SOL    HW210587   0.789   0.192   3.948  0.9689  0.7449 -1.1101
 3511SOL     OW10588   1.931   4.068   0.267 -0.5028 -0.0441  0.3952
 3511SOL    HW110589   1.839   4.083   0.284 -0.2579  0.7462  1.0599
 3511SOL    HW210590   1.960   4.145   0.217  0.4710  1.2461  2.7785
 3512SOL     OW10591   3.953   4.534   3.240  0.4830 -1.0036  0.3238
 3512SOL    HW110592   3.943   4.544   3.146  2.6461  1.2135  0.2246
 3512SOL    HW210593   3.874   4.574   3.277  0.1218 -0.8943 -0.5407
 3513SOL     OW10594   4.763   3.707   4.207  0.2004 -1.0626  0.1621
 3513SOL    HW110595   4.699   3.705   4.136  1.1114  0.1439 -0.7222
 3513SOL    HW210596   4.784   3.614   4.222 -2.7603 -1.6276  1.4790
 3514SOL     OW10597   3.212   4.676   4.470 -0.3384 -0.3357 -0.0302
 3514SOL    HW110598   3.238   4.670   4.379  2.1758  0.4213  0.5629
 3514SOL    HW210599   3.279   4.626   4.518  0.5497  2.2836  1.6801
 3515SOL     OW10600   3.790   0.635   0.553  0.2808 -0.2208  0.3057
 3515SOL    HW110601   3.775   0.646   0.647  1.5855  1.3627  0.3644
 3515SOL    HW210602   3.766   0.544   0.535  0.2473 -0.6205  2.2202
 3516SOL     OW10603   2.161   1.643   2.913  0.0003  0.0672 -0.5953
 3516SOL    HW110604   2.085   1.634   2.970  0.1191 -1.3614 -0.6224
 3516SOL    HW210605   2.224   1.693   2.965 -0.6351  0.5101 -0.2428
 3517SOL     OW10606   4.176   0.554   2.793 -0.0217  0.0409  0.1005
 3517SOL    HW110607   4.206   0.504   2.716 -0.6588 -2.4830  1.3752
 3517SOL    HW210608   4.088   0.519   2.811 -0.3499  1.4012  1.3104
 3518SOL     OW10609   3.603   4.268   3.678 -0.8204 -0.1384  0.0061
 3518SOL    HW110610   3.549   4.314   3.742 -0.5796 -0.4974  0.4719
 3518SOL    HW210611   3.662   4.335   3.643 -1.2017  0.1368 -0.1140
 3519SOL     OW10612   2.036   3.021   2.924  0.4972  0.7773 -0.0943
 3519SOL    HW110613   2.119   3.048   2.966 -0.5475 -0.5356  3.1407
 3519SOL    HW210614   2.038   2.926   2.927 -0.3438  0.6721 -1.8176
 3520SOL     OW10615   3.434   2.146   0.376  1.1364 -0.1049 -0.5119
 3520SOL    HW110616   3.412   2.092   0.452  0.0893  0.2069 -0.5849
 3520SOL    HW210617   3.418   2.090   0.300 -2.9708  1.1192 -0.7976
 3521SOL     OW10618   0.525   0.913   0.353 -0.4794  0.0063  0.0093
 3521SOL    HW110619   0.533   0.873   0.439 -0.0383 -0.4388 -0.2342
 3521SOL    HW210620   0.439   0.886   0.321 -0.6123  0.1137  0.2769
 3522SOL     OW10621   3.776   3.135   1.259  0.2323  0.2337 -0.1982
 3522SOL    HW110622   3.855   3.110   1.306  1.7122  0.8062 -2.2191
 3522SOL    HW210623   3.796   3.222   1.223 -1.2665  0.3321 -0.8816
 3523SOL     OW10624   2.685   2.385   1.528  0.0286  0.2631 -0.4721
 3523SOL    HW110625   2.641   2.455   1.576  1.7836  0.1668  1.4091
 3523SOL    HW210626   2.751   2.431   1.476  0.5279  0.0928  0.0075
 3524SOL     OW10627  -0.001   1.436   4.114  0.0999  0.3588  0.3863
 3524SOL    HW110628  -0.008   1.360   4.171  0.9380  0.3806  0.5218
 3524SOL    HW210629   0.092   1.456   4.110 -0.0326  0.9126 -0.2649
 3525SOL     OW10630   4.502   2.484   3.030  0.2911 -0.2055  0.0269
 3525SOL    HW110631   4.431   2.431   3.064 -0.4426  2.0359  2.3175
 3525SOL    HW210632   4.477   2.501   2.939 -0.6477 -1.7675 -0.0354
 3526SOL     OW10633   0.237   1.874   4.446 -0.6289 -0.7199 -0.3081
 3526SOL    HW110634   0.307   1.816   4.475 -1.2041 -1.7586 -0.9366
 3526SOL    HW210635   0.218   1.929   4.523  1.3112  0.0730 -0.3392
 3527SOL     OW10636   1.476   2.334   2.745 -0.3504 -0.2227  0.1334
 3527SOL    HW110637   1.502   2.327   2.654  2.1950 -3.1295  0.9317
 3527SOL    HW210638   1.467   2.428   2.760  0.5063  0.4155 -2.7239
 3528SOL     OW10639   3.596   0.339   3.145 -0.1586  0.1270 -0.5016
 3528SOL    HW110640   3.654   0.386   3.205  0.6477  0.4884 -1.5443
 3528SOL    HW210641   3.652   0.275   3.101 -0.7523 -0.1800 -0.8319
 3529SOL     OW10642   4.555   2.230   0.463 -0.4380 -0.3975  0.0032
 3529SOL    HW110643   4.569   2.323   0.444  1.8601 -0.5113  0.8296
 3529SOL    HW210644   4.494   2.201   0.395  0.6233  1.1966 -1.7391
 3530SOL     OW10645   3.050   3.260   2.230 -0.3008  0.5812  0.4019
 3530SOL    HW110646   2.997   3.257   2.150  4.3608 -1.4543 -3.0561
 3530SOL    HW210647   3.022   3.183   2.279  0.2180 -1.2426 -1.9883
 3531SOL     OW10648   2.658   2.117   1.504 -0.5551 -0.0610 -0.4980
 3531SOL    HW110649   2.745   2.082   1.482  0.0329  1.9906 -1.6582
 3531SOL    HW210650   2.675   2.207   1.530 -2.0792 -0.4025  1.9318
 3532SOL     OW10651   0.981   0.208   3.698 -0.1695  0.2085 -0.3109
 3532SOL    HW110652   0.979   0.232   3.606 -0.9744 -0.9722 -0.6224
 3532SOL    HW210653   0.888   0.198   3.722  0.0176  0.7525  0.6934
 3533SOL     OW10654   3.417   2.550   1.189 -0.3643  0.1268 -0.1049
 3533SOL    HW110655   3.326   2.572   1.209 -0.1212 -0.2128  1.5310
 3533SOL    HW210656   3.466   2.629   1.212 -0.2474  0.3512 -1.1011
 3534SOL     OW10657   4.101   1.138   4.865  0.1568  0.2378  0.1871
 3534SOL    HW110658   4.007   1.154   4.862  0.2545  1.0575  0.9516
 3534SOL    HW210659   4.139   1.221   4.895  1.0332 -0.3626  0.8102
 3535SOL     OW10660   1.008   1.896   2.293 -0.7532 -0.5488 -0.5523
 3535SOL    HW110661   1.103   1.896   2.282 -0.3623  0.0511  2.1750
 3535SOL    HW210662   0.986   1.805   2.310 -0.4606 -0.4927  0.1528
 3536SOL     OW10663   4.646   1.922   3.122  0.4988  0.6029  0.0434
 3536SOL    HW110664   4.612   1.853   3.179 -1.0846 -0.7912 -2.4049
 3536SOL    HW210665   4.735   1.938   3.153  0.3314 -1.3454  1.7223
 3537SOL     OW10666   2.299   4.348   1.145  0.0063  0.2995 -0.1875
 3537SOL    HW110667   2.298   4.292   1.222 -0.1336 -1.2926 -1.2869
 3537SOL    HW210668   2.334   4.432   1.176  2.5750 -1.1080  1.0784
 3538SOL     OW10669   1.096   4.334   2.959  0.3134 -0.4146 -0.3991
 3538SOL    HW110670   1.134   4.273   2.896  0.4419 -1.9176  1.0736
 3538SOL    HW210671   1.085   4.283   3.039  0.1148  1.4064  0.8088
 3539SOL     OW10672   1.477   3.419   4.401 -0.2877  0.4551  0.1677
 3539SOL    HW110673   1.534   3.480   4.354  2.2831 -1.5892  0.4098
 3539SOL    HW210674   1.497   3.432   4.493  0.0926 -0.5399  0.2386
 3540SOL     OW10675   0.864   1.619   0.959 -0.0313  0.3329  0.1426
 3540SOL    HW110676   0.885   1.619   0.866 -2.9231  0.9779 -0.6075
 3540SOL    HW210677   0.809   1.542   0.971  0.4220  0.1825  1.3657
 3541SOL     OW10678   4.148   1.251   0.532 -0.3888 -0.2422  0.0772
 3541SOL    HW110679   4.199   1.212   0.461 -0.0297  0.5118 -0.0835
 3541SOL    HW210680   4.121   1.176   0.586  1.4273 -0.6049  0.5283
 3542SOL     OW10681   2.261   4.752   4.830  0.0640  0.3837  0.0611
 3542SOL    HW110682   2.207   4.693   4.777  0.4249  0.2164 -0.1251
 3542SOL    HW210683   2.338   4.769   4.775  1.2498 -1.1311  1.1806
 3543SOL     OW10684   4.218   2.349   2.284  0.1297  0.2029 -0.4882
 3543SOL    HW110685   4.298   2.301   2.300  0.1179  0.0891 -0.7733
 3543SOL    HW210686   4.207   2.348   2.189 -0.0305  0.5039 -0.4760
 3544SOL     OW10687   1.106   0.246   4.224  0.1560 -0.6417 -0.6396
 3544SOL    HW110688   1.114   0.338   4.199  1.5526 -0.5995 -0.1511
 3544SOL    HW210689   1.070   0.248   4.312 -0.8804 -0.6246 -1.0507
 3545SOL     OW10690   0.492   2.006   4.881 -0.1582 -0.0792 -0.1631
 3545SOL    HW110691   0.452   2.061   4.813  0.7450  0.9495  0.1197
 3545SOL    HW210692   0.429   2.008   4.953  0.3676  1.5603  0.2918
 3546SOL     OW10693   2.491   2.356   2.155  0.3650  0.0363  0.6889
 3546SOL    HW110694   2.518   2.326   2.068  1.1906  2.7302 -0.1071
 3546SOL    HW210695   2.471   2.449   2.142 -2.9284 -0.2454  2.6851
 3547SOL     OW10696   0.515   2.258   0.964  0.2748  0.2743  0.2885
 3547SOL    HW110697   0.448   2.193   0.945  1.3114 -0.7075 -0.1686
 3547SOL    HW210698   0.537   2.295   0.878  1.0012 -0.1363  0.2814
 3548SOL     OW10699   3.602   1.816   3.836 -0.3538  0.8601  0.1588
 3548SOL    HW110700   3.697   1.807   3.824 -0.6101 -0.3776 -1.2218
 3548SOL    HW210701   3.572   1.856   3.755 -1.2553 -0.7034 -0.3142
 3549SOL     OW10702   2.943   2.812   1.978  0.7087  0.3923 -0.2167
 3549SOL    HW110703   2.981   2.724   1.982  0.4585  0.3313  2.9664
 3549SOL    HW210704   3.018   2.871   1.986  0.5805  0.3155  2.4287
 3550SOL     OW10705   2.209   4.927   1.633  0.0373  0.1745 -0.1839
 3550SOL    HW110706   2.244   4.845   1.596  0.0983 -0.3216  0.9405
 3550SOL    HW210707   2.244   4.930   1.722 -1.5353  0.4476  0.4570
 3551SOL     OW10708   0.659   0.399   4.305  0.5767  0.0410 -0.4440
 3551SOL    HW110709   0.704   0.330   4.355  0.5461 -1.4799 -2.3934
 3551SOL    HW210710   0.729   0.455   4.272  0.5909  1.1261  1.3219
 3552SOL     OW10711   3.464   0.838   4.565 -0.3483 -0.7740 -0.2453
 3552SOL    HW110712   3.532   0.859   4.629 -0.8427  1.5978 -0.3797
 3552SOL    HW210713   3.484   0.895   4.490 -1.8141 -0.8608 -0.7377
 3553SOL     OW10714   4.904   3.533   0.828 -0.3542 -0.2254  0.6121
 3553SOL    HW110715   4.890   3.449   0.784  1.6511  0.1190 -0.8217
 3553SOL    HW210716   4.995   3.531   0.856 -0.8298  0.6875  2.4302
 3554SOL     OW10717   0.573   1.306   0.717 -0.5131 -0.2815  0.1283
 3554SOL    HW110718   0.486   1.283   0.685 -0.1059 -1.5094 -0.1736
 3554SOL    HW210719   0.607   1.367   0.652 -0.9122 -0.2886 -0.0902
 3555SOL     OW10720   3.474   3.680   4.253  0.7216  0.2357 -0.0528
 3555SOL    HW110721   3.464   3.658   4.160 -0.0783  1.3537 -0.2590
 3555SOL    HW210722   3.471   3.596   4.298 -1.0461 -0.1840 -0.8746
 3556SOL     OW10723   3.898   0.783   1.137  0.3609  0.4701 -0.7246
 3556SOL    HW110724   3.938   0.717   1.193 -1.0701  0.9731  0.9735
 3556SOL    HW210725   3.965   0.802   1.071  2.2970  0.1686  1.0441
 3557SOL     OW10726   0.679   3.826   0.148 -0.0730 -0.2909  0.0486
 3557SOL    HW110727   0.740   3.825   0.221  0.0240 -0.2807 -0.0334
 3557SOL    HW210728   0.724   3.780   0.077 -0.6100 -1.3049  0.3496
 3558SOL     OW10729   0.852   4.203   2.260 -0.4425 -0.7058  0.0059
 3558SOL    HW110730   0.799   4.166   2.330 -1.8549 -0.6794 -0.9999
 3558SOL    HW210731   0.799   4.191   2.181  0.4095  0.6647 -0.8167
 3559SOL     OW10732   3.059   2.180   0.778 -0.8305  0.7201  0.3542
 3559SOL    HW110733   3.062   2.197   0.684  1.9012 -1.7254 -0.1689
 3559SOL    HW210734   3.120   2.243   0.816 -0.0768  0.1584  0.1068
 3560SOL     OW10735   1.425   1.184   0.662 -0.0892 -0.3922  0.5355
 3560SOL    HW110736   1.337   1.219   0.675 -0.0491  0.7814 -1.8389
 3560SOL    HW210737   1.411   1.092   0.637 -0.7304 -0.0091 -0.5824
 3561SOL     OW10738   3.210   4.176   4.722 -0.4045 -0.5534 -0.0042
 3561SOL    HW110739   3.288   4.130   4.753 -0.6962 -0.6455  0.6074
 3561SOL    HW210740   3.215   4.170   4.627  0.4590 -0.3433  0.0233
 3562SOL     OW10741   3.990   0.252   4.692 -0.2000 -0.4627 -0.0630
 3562SOL    HW110742   4.078   0.222   4.670  0.5398  0.5977  1.2934
 3562SOL    HW210743   3.995   0.347   4.691 -1.5710 -0.3674 -0.8218
 3563SOL     OW10744   3.872   0.843   3.599  0.2116  0.2554 -0.1739
 3563SOL    HW110745   3.866   0.924   3.651 -0.5771 -0.1336  0.3657
 3563SOL    HW210746   3.960   0.845   3.562  0.5356  0.9164  0.5897
 3564SOL     OW10747   2.462   4.933   1.108 -0.6331 -0.1240  0.3127
 3564SOL    HW110748   2.516   4.854   1.101 -0.8025 -0.2267  0.1806
 3564SOL    HW210749   2.506   4.997   1.051  0.0525  0.1866  1.1621
 3565SOL     OW10750   4.236   0.483   0.865  0.7151  0.0158 -0.6468
 3565SOL    HW110751   4.184   0.546   0.915  2.2486  0.5463  0.3386
 3565SOL    HW210752   4.279   0.535   0.798 -0.7452 -0.5808 -2.1372
 3566SOL     OW10753   4.334   1.870   0.656 -0.1640  0.7059  0.3796
 3566SOL    HW110754   4.385   1.950   0.666  2.1804 -0.8412  1.8485
 3566SOL    HW210755   4.397   1.799   0.671 -2.8401 -1.3674  3.1267
 3567SOL     OW10756   2.324   0.442   1.596 -0.0879  0.1697 -0.2306
 3567SOL    HW110757   2.309   0.352   1.566  0.8462  0.3105 -1.2160
 3567SOL    HW210758   2.252   0.493   1.559  0.3348  0.1088 -1.1661
 3568SOL     OW10759   4.073   0.560   0.579 -0.3824 -0.2270  0.0358
 3568SOL    HW110760   3.978   0.572   0.575 -0.5140 -0.9414  0.6994
 3568SOL    HW210761   4.104   0.633   0.634 -0.5802 -0.1391  0.0318
 3569SOL     OW10762   1.257   0.317   1.737 -0.6736  0.1555 -0.0807
 3569SOL    HW110763   1.213   0.380   1.794 -0.9333  0.8156 -0.9881
 3569SOL    HW210764   1.333   0.287   1.787 -0.5605  1.1705  0.3724
 3570SOL     OW10765   2.062   1.166   4.534 -0.2331 -0.1471  0.0919
 3570SOL    HW110766   1.979   1.153   4.581  0.3273 -1.4142  0.8107
 3570SOL    HW210767   2.123   1.105   4.577  0.4641 -0.9812 -1.9380
 3571SOL     OW10768   2.542   2.860   4.244 -0.3597  0.1440  0.1143
 3571SOL    HW110769   2.586   2.935   4.204  1.3631 -0.2874  1.1232
 3571SOL    HW210770   2.457   2.895   4.273 -0.7509  0.9808 -1.9120
 3572SOL     OW10771   4.679   3.455   2.541 -0.1170 -0.2347  0.4013
 3572SOL    HW110772   4.598   3.406   2.558  0.4448 -1.4763 -0.3324
 3572SOL    HW210773   4.742   3.388   2.514  0.6458  0.9115 -0.8141
 3573SOL     OW10774   1.269   3.020   1.198 -0.2279 -0.0259 -0.3369
 3573SOL    HW110775   1.300   2.930   1.190  1.0465  0.2762  0.6868
 3573SOL    HW210776   1.282   3.058   1.111 -0.8684 -0.8416 -0.8035
 3574SOL     OW10777   3.921   3.784   2.598 -0.3205 -0.0565 -0.5414
 3574SOL    HW110778   3.934   3.855   2.535  1.0702  1.0387  0.8959
 3574SOL    HW210779   3.880   3.827   2.674 -0.3884 -0.9944 -0.0357
 3575SOL     OW10780   4.412   2.215   3.710 -0.5872 -0.5075  0.1169
 3575SOL    HW110781   4.318   2.201   3.713 -0.5449 -1.8508 -2.1209
 3575SOL    HW210782   4.422   2.295   3.658 -0.5269 -1.3375 -1.2226
 3576SOL     OW10783   2.102   1.078   0.863 -0.2472  0.2470  0.3208
 3576SOL    HW110784   2.022   1.120   0.834 -0.2736  0.1910  0.3123
 3576SOL    HW210785   2.167   1.101   0.795 -0.8508 -1.7508 -1.0186
 3577SOL     OW10786   2.149   0.395   3.747  0.4423 -0.1015  0.5414
 3577SOL    HW110787   2.194   0.407   3.831  0.5688  0.1582  0.4400
 3577SOL    HW210788   2.202   0.444   3.684 -0.7758  1.4790  0.6716
 3578SOL     OW10789   2.932   2.862   2.596 -0.6053  0.2205  0.0031
 3578SOL    HW110790   2.903   2.772   2.581 -1.6404  0.2553  1.5896
 3578SOL    HW210791   3.027   2.858   2.585 -0.7691 -0.7486 -1.3515
 3579SOL     OW10792   2.573   0.407   3.952 -0.1333 -0.1407  0.2540
 3579SOL    HW110793   2.567   0.312   3.943  0.4560 -0.1219 -0.3721
 3579SOL    HW210794   2.586   0.422   4.046 -1.3194 -0.6105  0.5122
 3580SOL     OW10795   1.155   3.551   4.011  0.1430 -0.4525 -0.7093
 3580SOL    HW110796   1.232   3.493   4.008 -0.7428 -1.7922  0.8449
 3580SOL    HW210797   1.100   3.514   4.080 -1.4206  1.0990 -1.0615
 3581SOL     OW10798   0.091   1.674   2.022  0.0006  0.7164 -0.0871
 3581SOL    HW110799   0.028   1.635   1.962  0.5161  0.0205 -0.1992
 3581SOL    HW210800   0.100   1.764   1.993  1.0774  0.1100 -1.7967
 3582SOL     OW10801   1.392   4.764   2.341 -0.2642  0.6834 -0.6234
 3582SOL    HW110802   1.408   4.847   2.295  0.4073  1.9020  1.6083
 3582SOL    HW210803   1.471   4.712   2.326 -0.5845  0.5309 -1.8396
 3583SOL     OW10804   0.188   0.095   3.425 -0.2537  0.6287 -0.2369
 3583SOL    HW110805   0.177   0.006   3.458 -1.0608  0.7997 -0.0346
 3583SOL    HW210806   0.189   0.086   3.330  0.1392  0.3539 -0.2072
 3584SOL     OW10807   1.224   0.903   1.779 -0.2282  0.0538  0.5009
 3584SOL    HW110808   1.257   0.989   1.751  0.3363 -0.0373  0.8539
 3584SOL    HW210809   1.129   0.911   1.774 -0.1775  0.6425  0.3506
 3585SOL     OW10810   1.777   2.810   1.856 -0.1517  0.4221 -0.4570
 3585SOL    HW110811   1.725   2.864   1.915  0.5926 -2.4806  3.2517
 3585SOL    HW210812   1.867   2.840   1.869 -0.0768  0.3341 -0.7625
 3586SOL     OW10813   4.602   0.185   1.211 -0.4182 -0.0182 -0.7796
 3586SOL    HW110814   4.521   0.136   1.224 -1.0740  0.7018 -1.9357
 3586SOL    HW210815   4.577   0.257   1.153  0.7463  1.0629  0.0137
 3587SOL     OW10816   1.789   3.663   3.330  0.7508  0.2256  0.2521
 3587SOL    HW110817   1.872   3.625   3.300  1.0682  0.8650  0.3066
 3587SOL    HW210818   1.731   3.588   3.339  1.7351 -0.4275  1.5621
 3588SOL     OW10819   3.797   1.749   2.026 -0.1170  0.5695 -0.2562
 3588SOL    HW110820   3.730   1.683   2.010 -0.4567  0.8059  0.1746
 3588SOL    HW210821   3.821   1.780   1.938  1.1611 -1.1920 -0.5980
 3589SOL     OW10822   0.869   1.012   2.387  0.8776  0.0773 -0.2814
 3589SOL    HW110823   0.861   1.107   2.374  2.0302  0.0395 -1.5976
 3589SOL    HW210824   0.952   1.001   2.433  1.1127 -0.3163 -0.7821
 3590SOL     OW10825   0.490   4.514   4.815  0.0317  0.6810 -0.0283
 3590SOL    HW110826   0.476   4.534   4.723 -0.0917  1.6079  0.1789
 3590SOL    HW210827   0.415   4.554   4.860 -0.9307 -1.3965  0.3110
 3591SOL     OW10828   3.029   3.414   0.206  0.3186 -0.5934 -0.1476
 3591SOL    HW110829   3.116   3.379   0.185  0.8089  0.3280  0.2731
 3591SOL    HW210830   2.992   3.436   0.120  0.7981 -0.3328 -0.2983
 3592SOL     OW10831   4.846   2.207   3.930 -0.0061 -0.4749  0.1517
 3592SOL    HW110832   4.923   2.151   3.921  0.2017  0.0468 -1.8975
 3592SOL    HW210833   4.846   2.260   3.851 -1.3968  0.9224  1.0308
 3593SOL     OW10834   3.615   2.166   2.726 -0.4986 -0.3433 -0.4555
 3593SOL    HW110835   3.651   2.239   2.676  0.3148 -0.3525  0.1147
 3593SOL    HW210836   3.565   2.207   2.796 -1.6857 -0.3300 -1.2788
 3594SOL     OW10837   0.021   1.970   3.911  0.3451  0.1570 -0.3854
 3594SOL    HW110838   0.067   1.920   3.843 -0.1332 -1.2385  0.2870
 3594SOL    HW210839   0.090   2.019   3.955  1.1868 -1.5730  0.3210
 3595SOL     OW10840   2.397   4.266   0.304 -0.1796  0.5489 -0.4115
 3595SOL    HW110841   2.388   4.361   0.315 -0.2678  0.5328 -0.3463
 3595SOL    HW210842   2.423   4.234   0.390 -4.3159 -0.0206  0.8536
 3596SOL     OW10843   2.155   4.013   0.492 -0.1186  0.0815  0.0846
 3596SOL    HW110844   2.159   3.918   0.501 -0.1434 -0.0392 -0.9845
 3596SOL    HW210845   2.061   4.033   0.495 -0.0844  0.1575  0.9558
 3597SOL     OW10846   1.931   3.542   3.684 -0.3294 -0.3335  0.2242
 3597SOL    HW110847   1.971   3.623   3.652  0.2668  0.0067  1.7226
 3597SOL    HW210848   2.002   3.496   3.728 -0.9103 -1.1672  0.3074
 3598SOL     OW10849   2.122   1.973   0.685  0.0042  0.1828 -0.3094
 3598SOL    HW110850   2.129   1.923   0.766 -0.8653 -1.2985 -1.0992
 3598SOL    HW210851   2.049   1.933   0.638 -2.1791  3.5789 -0.1046
 3599SOL     OW10852   2.778   2.496   0.072  0.0733 -0.2329 -0.4800
 3599SOL    HW110853   2.868   2.464   0.074 -0.2856 -1.2701  0.7397
 3599SOL    HW210854   2.761   2.525   0.162 -1.2847 -1.5330 -0.2759
 3600SOL     OW10855   2.964   4.881   3.737 -0.1708 -0.1069 -0.5227
 3600SOL    HW110856   2.946   4.947   3.670  2.0054  1.4398  0.3028
 3600SOL    HW210857   3.051   4.904   3.770  0.6029 -3.2956 -0.0333
 3601SOL     OW10858   2.966   4.879   2.848  0.2092  0.0264  0.4497
 3601SOL    HW110859   2.907   4.908   2.779  2.0892 -2.5824 -2.5334
 3601SOL    HW210860   2.915   4.819   2.901 -0.8361  0.8789  0.4427
 3602SOL     OW10861   2.499   4.177   2.137  0.2396  0.4607 -0.3553
 3602SOL    HW110862   2.437   4.248   2.118  0.1006  1.1144  2.2491
 3602SOL    HW210863   2.585   4.217   2.126  0.1695  0.7157  0.0205
 3603SOL     OW10864   1.540   2.664   2.883  0.0756  0.1038 -0.1747
 3603SOL    HW110865   1.592   2.641   2.960  0.1746  1.3504  0.1603
 3603SOL    HW210866   1.450   2.655   2.911  0.1064  1.2897  0.3435
 3604SOL     OW10867   0.595   1.843   4.176 -0.0665 -0.3319  0.2503
 3604SOL    HW110868   0.637   1.814   4.257  1.0262  0.8102  0.1268
 3604SOL    HW210869   0.640   1.924   4.154 -0.6257 -0.4185 -1.2951
 3605SOL     OW10870   0.919   4.317   0.143  0.0449 -0.2953 -0.3653
 3605SOL    HW110871   0.962   4.242   0.100 -1.1616 -1.1923 -0.0627
 3605SOL    HW210872   0.872   4.361   0.072 -1.4455 -1.4217 -0.1288
 3606SOL     OW10873   0.686   1.258   3.285  0.2032 -0.2538  0.1911
 3606SOL    HW110874   0.774   1.236   3.315 -0.4822 -1.0872  1.7111
 3606SOL    HW210875   0.695   1.344   3.244  1.5638  0.0707  1.1042
 3607SOL     OW10876   0.439   0.044   2.113 -0.1572 -0.5643  0.2049
 3607SOL    HW110877   0.414   0.019   2.024 -1.8201 -0.0107  0.4961
 3607SOL    HW210878   0.469  -0.037   2.153  0.2994 -0.8824 -0.7390
 3608SOL     OW10879   2.542   1.882   1.559 -0.5762 -0.2205  0.0798
 3608SOL    HW110880   2.557   1.971   1.527 -1.4926 -0.1104 -0.0574
 3608SOL    HW210881   2.617   1.865   1.617  1.0521 -0.3506 -1.9326
 3609SOL     OW10882   0.770   1.186   4.268  0.0727 -0.3228 -0.7649
 3609SOL    HW110883   0.866   1.189   4.270  0.1745 -2.0478  2.1553
 3609SOL    HW210884   0.743   1.274   4.292  0.9930 -0.2858  0.2267
 3610SOL     OW10885   0.350   3.694   2.511 -0.0050 -0.0440  0.1341
 3610SOL    HW110886   0.276   3.719   2.568  0.8480 -0.7082  1.5920
 3610SOL    HW210887   0.408   3.770   2.514  0.6016 -0.5240  1.1593
 3611SOL     OW10888   2.393   3.342   0.908  0.5686  0.1607  0.3382
 3611SOL    HW110889   2.422   3.334   0.817 -0.9163  1.4598 -0.2873
 3611SOL    HW210890   2.458   3.400   0.948  0.7633  0.2645 -0.1221
 3612SOL     OW10891   4.920   3.956   4.490  0.4174  0.0333 -0.4549
 3612SOL    HW110892   4.983   3.889   4.516 -1.9265 -2.5482 -0.9852
 3612SOL    HW210893   4.935   3.968   4.396 -0.0149 -0.7682 -0.6334
 3613SOL     OW10894   0.629   3.839   3.505  0.1582 -0.4966 -0.1694
 3613SOL    HW110895   0.603   3.906   3.568 -1.1430 -2.2210  1.2493
 3613SOL    HW210896   0.548   3.817   3.459  0.2321 -2.0386  0.3729
 3614SOL     OW10897   2.256   1.450   0.616 -0.0827 -0.8390  0.4485
 3614SOL    HW110898   2.290   1.538   0.601  1.6202 -1.5219  0.1030
 3614SOL    HW210899   2.178   1.445   0.560 -0.9330  0.8205  1.3856
 3615SOL     OW10900   1.055   2.165   0.204 -1.0440  0.5581  0.0203
 3615SOL    HW110901   1.001   2.123   0.137  1.1747 -0.1203 -1.4327
 3615SOL    HW210902   1.036   2.258   0.194 -0.3582  0.5334 -1.9820
 3616SOL     OW10903   3.152   4.370   0.423  0.1043 -0.3341 -0.2565
 3616SOL    HW110904   3.206   4.320   0.484  0.4800 -1.1544 -1.2272
 3616SOL    HW210905   3.215   4.421   0.371 -0.1864  0.1059 -0.1888
 3617SOL     OW10906   1.791   4.272   0.471 -0.7764  0.3300  0.6350
 3617SOL    HW110907   1.814   4.297   0.382 -0.3444  0.6498  0.8352
 3617SOL    HW210908   1.752   4.351   0.509  2.0179  1.2865  1.7825
 3618SOL     OW10909   0.182   1.077   4.622  0.2217 -0.1516 -0.3443
 3618SOL    HW110910   0.215   0.994   4.657  1.0534  0.1539 -0.3831
 3618SOL    HW210911   0.087   1.072   4.635  0.4193 -0.3573  1.3284
 3619SOL     OW10912   3.305   3.128   0.430  0.1925 -0.5438  0.0502
 3619SOL    HW110913   3.272   3.218   0.420  0.0331 -0.6971 -0.9401
 3619SOL    HW210914   3.385   3.126   0.378 -0.5054 -1.3218 -1.0479
 3620SOL     OW10915   2.117   2.707   2.293 -0.1700 -0.4481 -0.9210
 3620SOL    HW110916   2.161   2.714   2.208 -0.4113 -1.3224 -1.1261
 3620SOL    HW210917   2.176   2.652   2.346 -0.1881 -0.1944 -0.6326
 3621SOL     OW10918   3.999   1.111   1.512 -0.3254 -0.6025 -0.5445
 3621SOL    HW110919   3.972   1.135   1.423 -0.6293 -1.7806 -0.7829
 3621SOL    HW210920   3.997   1.194   1.560  0.0289  0.0861 -1.6765
 3622SOL     OW10921   3.119   2.090   1.846  0.0530  0.0746 -0.5840
 3622SOL    HW110922   3.201   2.102   1.893  1.4936 -0.2731 -2.8356
 3622SOL    HW210923   3.058   2.055   1.911  2.3630 -1.9368  0.6298
 3623SOL     OW10924   1.073   4.150   4.750 -0.0183 -0.0816  0.3816
 3623SOL    HW110925   1.087   4.083   4.684  1.5698  0.0565  0.5480
 3623SOL    HW210926   1.000   4.202   4.716 -0.5120 -1.1893 -0.2951
 3624SOL     OW10927   2.999   1.473   3.464 -0.8473 -0.7147  0.5149
 3624SOL    HW110928   2.968   1.552   3.420 -1.0177 -1.4173 -0.6651
 3624SOL    HW210929   3.092   1.468   3.441 -0.8665 -0.9305  0.4865
 3625SOL     OW10930   1.629   0.504   4.686  0.3103  0.6442 -0.2946
 3625SOL    HW110931   1.705   0.492   4.743 -0.7825 -1.0872  0.8857
 3625SOL    HW210932   1.639   0.438   4.617 -0.9916 -0.9139  0.9201
 3626SOL     OW10933   3.182   3.082   0.997 -0.3492  0.1127 -0.0571
 3626SOL    HW110934   3.243   3.156   1.004 -1.2200  0.7787  0.7228
 3626SOL    HW210935   3.220   3.015   1.053  0.8716 -0.3727 -1.3867
 3627SOL     OW10936   0.824   5.002   2.123  0.3321 -0.3609  0.0836
 3627SOL    HW110937   0.777   4.967   2.047  2.4433 -2.6735 -0.2745
 3627SOL    HW210938   0.807   4.939   2.193  1.9936 -0.6622  0.2390
 3628SOL     OW10939   1.595   3.193   0.785 -0.7998  0.0529 -0.4348
 3628SOL    HW110940   1.587   3.288   0.777  2.1454  0.3331 -1.4117
 3628SOL    HW210941   1.568   3.174   0.875  0.1486  2.0761  0.3436
 3629SOL     OW10942   4.864   0.092   2.228  0.3420  0.0402 -0.1733
 3629SOL    HW110943   4.872   0.180   2.266  1.4973 -0.0809 -0.1060
 3629SOL    HW210944   4.849   0.035   2.304 -0.4409  0.1702 -0.2201
 3630SOL     OW10945   4.882   0.595   4.067 -0.0847 -0.3870 -0.0587
 3630SOL    HW110946   4.881   0.676   4.119 -0.9169 -0.7827  0.5788
 3630SOL    HW210947   4.855   0.623   3.980  2.9354  0.5775 -0.8098
 3631SOL     OW10948   3.048   0.205   4.733 -0.5260  0.2557  0.0236
 3631SOL    HW110949   3.101   0.261   4.676 -1.3079  0.1516 -0.8477
 3631SOL    HW210950   3.074   0.116   4.712  0.3058  0.2552  0.9921
 3632SOL     OW10951   1.382   4.655   4.179  0.3260  0.2467 -0.0629
 3632SOL    HW110952   1.361   4.742   4.212  2.0922  0.3389  0.9191
 3632SOL    HW210953   1.397   4.602   4.258  0.2282 -0.7130 -0.6636
 3633SOL     OW10954   1.166   0.238   2.064  0.1773 -0.0400  0.5828
 3633SOL    HW110955   1.120   0.292   2.128  2.1750  0.8036  1.4201
 3633SOL    HW210956   1.136   0.269   1.979  0.0450  1.2486  1.0870
 3634SOL     OW10957   0.049   1.771   4.205 -0.0581  0.1351  0.4160
 3634SOL    HW110958   0.126   1.819   4.175 -0.2318  1.7934  2.3998
 3634SOL    HW210959  -0.025   1.823   4.174 -0.4703 -1.4398 -1.4664
 3635SOL     OW10960   3.135   0.982   3.410 -0.0567 -0.1808  0.3439
 3635SOL    HW110961   3.189   1.036   3.468 -1.0636 -0.8149  1.9368
 3635SOL    HW210962   3.047   1.018   3.419 -0.7784 -2.0533  1.5206
 3636SOL     OW10963   4.428   2.676   4.040  0.1587  0.0942 -0.1832
 3636SOL    HW110964   4.414   2.734   4.115  1.7331 -1.1711  1.1603
 3636SOL    HW210965   4.421   2.734   3.964 -2.3064  1.2829  0.8191
 3637SOL     OW10966   4.001   4.629   1.175 -0.2174 -0.3513  0.6007
 3637SOL    HW110967   4.095   4.612   1.177  0.1304  1.3603  0.5524
 3637SOL    HW210968   3.988   4.683   1.097 -1.1018  0.1522  1.0785
 3638SOL     OW10969   4.481   2.178   4.637  0.1952 -0.2224 -0.1982
 3638SOL    HW110970   4.445   2.165   4.724 -0.1969 -2.1078 -0.5986
 3638SOL    HW210971   4.574   2.155   4.646  0.3129  0.2487 -0.1508
 3639SOL     OW10972   3.938   0.773   2.254 -0.5268 -0.1046  0.1351
 3639SOL    HW110973   3.876   0.835   2.217  0.0436  0.2106 -0.2942
 3639SOL    HW210974   3.885   0.694   2.270 -1.1331  0.3054  0.1936
 3640SOL     OW10975   3.381   1.404   0.239 -0.1480  0.1060  0.3299
 3640SOL    HW110976   3.411   1.326   0.193 -1.3645 -0.9634  1.2447
 3640SOL    HW210977   3.327   1.451   0.175 -0.8235 -0.7176  0.2903
 3641SOL     OW10978   3.025   0.460   2.740 -0.4727  0.1270 -0.2345
 3641SOL    HW110979   2.951   0.509   2.702 -0.6929 -0.2779 -0.3277
 3641SOL    HW210980   3.013   0.468   2.834 -1.9293 -1.8230 -0.1902
 3642SOL     OW10981   0.156   3.732   2.689 -0.0136 -0.3996  0.5292
 3642SOL    HW110982   0.179   3.674   2.761  0.6267  0.1050  0.7351
 3642SOL    HW210983   0.141   3.817   2.730  1.5965  0.2003 -0.0529
 3643SOL     OW10984   2.672   2.061   1.944 -0.5417 -0.6351 -0.2985
 3643SOL    HW110985   2.646   2.152   1.957 -3.1562 -1.5042  1.4152
 3643SOL    HW210986   2.596   2.019   1.904 -0.1643 -2.4318  0.7047
 3644SOL     OW10987   3.746   0.351   0.508 -0.0275 -0.2305  0.0878
 3644SOL    HW110988   3.809   0.290   0.546 -0.3128 -1.1001 -0.7834
 3644SOL    HW210989   3.673   0.352   0.569  0.2370 -0.2928  0.4075
 3645SOL     OW10990   4.572   4.051   2.018  0.0489  0.8099 -0.4143
 3645SOL    HW110991   4.625   4.127   1.994  0.1797  0.0445 -2.7351
 3645SOL    HW210992   4.600   3.982   1.958 -2.5006 -0.0567 -0.7143
 3646SOL     OW10993   3.721   3.315   3.565  0.3660 -0.5098 -0.0713
 3646SOL    HW110994   3.809   3.286   3.544  0.1783 -0.6023 -0.7670
 3646SOL    HW210995   3.730   3.409   3.582  0.7985 -0.7537  1.1377
 3647SOL     OW10996   4.530   1.183   2.284 -0.1571 -0.1183 -0.2943
 3647SOL    HW110997   4.441   1.163   2.312  0.3960  0.1491  1.8424
 3647SOL    HW210998   4.561   1.103   2.242 -0.1675 -1.6357  2.3628
 3648SOL     OW10999   3.853   1.579   2.429  0.5354 -0.1163 -0.3453
 3648SOL    HW111000   3.837   1.498   2.381  0.2479 -0.1468 -0.1958
 3648SOL    HW211001   3.769   1.624   2.430  1.1894  1.3507 -2.5606
 3649SOL     OW11002   2.823   3.264   2.652  0.0588  0.0608 -0.0071
 3649SOL    HW111003   2.767   3.282   2.728 -0.3213 -2.5791  0.4317
 3649SOL    HW211004   2.763   3.268   2.577 -0.4631 -1.2791  0.3065
 3650SOL     OW11005   2.438   0.320   4.798  0.5173 -0.7881  0.1564
 3650SOL    HW111006   2.361   0.371   4.771  0.3507 -0.5119  1.1345
 3650SOL    HW211007   2.456   0.263   4.723  0.1151  0.0214 -0.5700
 3651SOL     OW11008   1.921   3.871   3.926 -0.1289 -0.0313  0.3629
 3651SOL    HW111009   1.948   3.962   3.926 -1.8469  0.5097  0.2890
 3651SOL    HW211010   1.978   3.829   3.860  0.9099  0.8806  0.6458
 3652SOL     OW11011   0.967   3.965   3.995 -0.2564  0.1907 -0.0473
 3652SOL    HW111012   0.898   4.025   4.025 -1.3227 -1.0857  0.1358
 3652SOL    HW211013   0.964   3.892   4.056  0.8631 -0.1777 -0.4074
 3653SOL     OW11014   3.239   0.520   4.214  0.1264  0.4967 -0.0891
 3653SOL    HW111015   3.273   0.599   4.256  0.4353 -0.5639  1.7685
 3653SOL    HW211016   3.185   0.478   4.282 -0.5521 -0.5672 -1.2452
 3654SOL     OW11017   0.018   2.435   1.649 -0.1013 -0.3181  0.2464
 3654SOL    HW111018  -0.052   2.500   1.653 -1.0442 -1.3799  2.4964
 3654SOL    HW211019   0.095   2.480   1.685 -0.6840 -0.3467  1.5650
 3655SOL     OW11020   2.131   1.141   4.277 -0.0269 -0.1786  0.0217
 3655SOL    HW111021   2.110   1.136   4.370 -0.7699 -0.5445 -0.1620
 3655SOL    HW211022   2.113   1.232   4.253 -0.5334 -0.2648  0.0719
 3656SOL     OW11023   2.043   1.458   3.932 -0.2765 -0.0766 -0.0671
 3656SOL    HW111024   2.097   1.535   3.916 -2.7003  1.7748  0.0155
 3656SOL    HW211025   2.071   1.394   3.867  2.6716  0.3486  0.6723
 3657SOL     OW11026   0.815   4.220   1.001  0.1119  0.0902 -0.4327
 3657SOL    HW111027   0.790   4.169   0.925  0.4716  1.6434 -1.6428
 3657SOL    HW211028   0.733   4.256   1.034 -0.2486 -1.7756  0.8856
 3658SOL     OW11029   0.561   4.951   2.799 -0.1501  0.3055 -0.2217
 3658SOL    HW111030   0.548   4.953   2.704 -0.7341 -1.4001 -0.2036
 3658SOL    HW211031   0.655   4.966   2.811  0.3859 -1.8885 -1.2407
 3659SOL     OW11032   2.540   2.532   0.472  0.2195 -0.4466  0.3286
 3659SOL    HW111033   2.470   2.490   0.523  0.4992 -2.1774 -0.6592
 3659SOL    HW211034   2.616   2.475   0.483  0.6367 -0.1757 -0.9965
 3660SOL     OW11035   0.342   0.655   4.453  0.1283  0.0431  0.2298
 3660SOL    HW111036   0.376   0.567   4.471  1.0427  0.1690 -0.7731
 3660SOL    HW211037   0.289   0.644   4.374 -0.3380  0.2765  0.5045
 3661SOL     OW11038   1.572   1.512   0.538  0.0280  0.4797 -0.1859
 3661SOL    HW111039   1.607   1.430   0.572  0.6234  1.0163  0.5476
 3661SOL    HW211040   1.566   1.500   0.444 -3.5566 -1.8132  0.1248
 3662SOL     OW11041   4.919   2.121   1.020 -0.0975 -0.3287  0.0202
 3662SOL    HW111042   4.960   2.208   1.016  0.3615 -0.5983 -1.8752
 3662SOL    HW211043   4.847   2.125   0.958 -0.1392 -1.2699 -0.0052
 3663SOL     OW11044   3.559   4.659   4.866  0.2555 -0.4685 -0.5367
 3663SOL    HW111045   3.465   4.677   4.857  0.5587  1.3688 -0.4551
 3663SOL    HW211046   3.601   4.731   4.818  1.6228 -1.5302 -0.9826
 3664SOL     OW11047   2.723   1.703   4.544 -0.4212 -0.4238 -0.5960
 3664SOL    HW111048   2.750   1.612   4.546  0.9974 -0.1321 -2.8512
 3664SOL    HW211049   2.742   1.732   4.455  0.9565  2.5926  0.5468
 3665SOL     OW11050   1.533   1.618   2.101  0.2190  0.4142  1.3015
 3665SOL    HW111051   1.628   1.610   2.110  0.1629 -0.0133  1.5637
 3665SOL    HW211052   1.498   1.586   2.184 -0.2215 -1.1778  0.5519
 3666SOL     OW11053   1.968   2.723   4.751  0.5700  0.4260  0.0839
 3666SOL    HW111054   2.046   2.720   4.696  0.6198 -0.0424  0.1681
 3666SOL    HW211055   1.926   2.806   4.731 -0.8408 -0.7923 -2.6284
 3667SOL     OW11056   2.082   3.405   4.848 -0.9088 -0.2554 -0.6212
 3667SOL    HW111057   2.129   3.395   4.765  0.0468  0.6403 -0.2027
 3667SOL    HW211058   1.995   3.436   4.822 -0.4848  0.4237 -1.2812
 3668SOL     OW11059   4.133   4.615   1.832  0.0394  0.2034 -0.0581
 3668SOL    HW111060   4.166   4.557   1.900 -0.1630  0.4927  0.2940
 3668SOL    HW211061   4.079   4.559   1.776  0.7052 -0.1618 -0.3388
 3669SOL     OW11062   0.047   2.856   2.909  0.1844 -0.0457 -0.1790
 3669SOL    HW111063   0.055   2.761   2.899  1.1413  0.0559 -0.4844
 3669SOL    HW211064  -0.040   2.877   2.876 -0.2219 -0.8745  0.3421
 3670SOL     OW11065   4.540   3.968   4.571 -0.1322 -0.1975  0.0258
 3670SOL    HW111066   4.543   4.060   4.545  0.1679  0.0758  0.9872
 3670SOL    HW211067   4.631   3.944   4.586 -0.2524 -0.4797  0.3353
 3671SOL     OW11068   3.868   1.094   3.704  0.4304  0.1656 -0.3396
 3671SOL    HW111069   3.948   1.113   3.753  0.3270  2.2011 -0.8982
 3671SOL    HW211070   3.806   1.162   3.731 -0.5736 -0.3854 -1.1644
 3672SOL     OW11071   2.774   1.800   4.273  0.5115  0.2894 -0.5604
 3672SOL    HW111072   2.748   1.765   4.188  0.2988 -0.3558 -0.2421
 3672SOL    HW211073   2.865   1.770   4.284 -0.1989 -1.6870  0.4523
 3673SOL     OW11074   2.749   1.937   4.700 -0.3524 -0.0085 -0.2500
 3673SOL    HW111075   2.827   1.926   4.753  1.6261 -1.6396 -3.2280
 3673SOL    HW211076   2.748   1.861   4.642 -2.3097  1.6103 -2.5295
 3674SOL     OW11077   4.146   3.649   3.379  0.1866 -0.1036  0.0768
 3674SOL    HW111078   4.051   3.652   3.366  0.1596  0.0766  0.3044
 3674SOL    HW211079   4.181   3.699   3.305  0.0864  0.0824  0.1514
 3675SOL     OW11080   3.580   2.910   3.710 -0.0934  0.5989  0.2417
 3675SOL    HW111081   3.641   2.897   3.637  0.8794  1.4437  0.8775
 3675SOL    HW211082   3.623   2.869   3.785 -1.1349 -0.3520  0.3361
 3676SOL     OW11083   3.898   2.758   4.386  0.3273 -0.3584 -0.6592
 3676SOL    HW111084   3.895   2.816   4.463 -0.8511  1.7176 -2.1601
 3676SOL    HW211085   3.840   2.686   4.409  1.7116 -0.9608  1.2133
 3677SOL     OW11086   3.170   0.256   2.671  0.1544  0.5803 -0.1177
 3677SOL    HW111087   3.249   0.282   2.717 -0.0787  0.4216  0.3782
 3677SOL    HW211088   3.110   0.330   2.683 -0.4717 -0.1013  1.2023
 3678SOL     OW11089   1.135   2.535   4.518  0.1499 -0.1888  0.4938
 3678SOL    HW111090   1.197   2.606   4.535  1.3182 -0.9987 -0.2237
 3678SOL    HW211091   1.155   2.507   4.429 -1.9999  0.2346 -0.1738
 3679SOL     OW11092   4.088   3.824   0.643 -0.3076  0.1422 -0.0682
 3679SOL    HW111093   3.994   3.816   0.660 -0.2235 -1.1173 -0.1631
 3679SOL    HW211094   4.122   3.871   0.719 -0.7894 -0.6630  0.6603
 3680SOL     OW11095   1.832   4.632   1.382 -0.0091  0.1905 -0.5617
 3680SOL    HW111096   1.851   4.559   1.324 -1.9897 -1.0336  0.2652
 3680SOL    HW211097   1.918   4.658   1.416  0.8402 -0.9987 -1.7134
 3681SOL     OW11098   3.395   2.482   1.601  0.2609  0.0738 -0.0073
 3681SOL    HW111099   3.348   2.442   1.675 -1.4432  0.7097 -0.6945
 3681SOL    HW211100   3.456   2.543   1.642  0.7958 -1.0575  0.9368
 3682SOL     OW11101   3.493   4.004   4.825 -0.6095  0.2478  0.3798
 3682SOL    HW111102   3.566   4.031   4.770 -0.4195  0.1630  0.5845
 3682SOL    HW211103   3.510   3.911   4.843 -0.2526  0.4638  1.2111
 3683SOL     OW11104   0.456   1.914   1.229  0.1963  0.5299 -0.1922
 3683SOL    HW111105   0.523   1.949   1.288  0.1229  0.5350 -0.1107
 3683SOL    HW211106   0.495   1.833   1.195 -0.1784 -0.0533  0.6999
 3684SOL     OW11107   2.849   1.556   2.090 -0.2037  0.4823  0.7142
 3684SOL    HW111108   2.809   1.610   2.022 -1.4479  0.1016  1.1334
 3684SOL    HW211109   2.942   1.580   2.087 -0.0652 -0.1027 -1.6374
 3685SOL     OW11110   2.565   4.913   1.673 -0.1571 -0.1991 -0.1323
 3685SOL    HW111111   2.590   4.980   1.736 -1.6528 -0.1218  0.4124
 3685SOL    HW211112   2.586   4.951   1.588 -1.3201  1.1386  0.1442
 3686SOL     OW11113   0.464   0.570   3.785  0.0536 -0.0891 -0.0099
 3686SOL    HW111114   0.390   0.625   3.808  0.0981 -0.1531  0.2961
 3686SOL    HW211115   0.486   0.524   3.867 -0.5744 -1.2633 -0.4809
 3687SOL     OW11116   4.439   3.083   0.324  0.8934 -0.0514 -0.2436
 3687SOL    HW111117   4.379   3.106   0.395  0.2478  0.6396 -0.9967
 3687SOL    HW211118   4.482   3.165   0.300  2.4657 -0.5982  0.5431
 3688SOL     OW11119   2.565   2.284   3.721 -0.4294 -0.5406 -0.1332
 3688SOL    HW111120   2.536   2.365   3.679  0.8051  0.3639  0.6918
 3688SOL    HW211121   2.529   2.289   3.809  0.2070 -0.5585  0.1318
 3689SOL     OW11122   1.176   3.495   2.139 -0.1909  0.7914 -0.3715
 3689SOL    HW111123   1.121   3.572   2.155 -2.1737 -0.5041 -0.5635
 3689SOL    HW211124   1.131   3.448   2.068 -1.6042 -2.7514  2.5458
 3690SOL     OW11125   4.961   2.416   4.750  0.0291 -0.2114 -0.1003
 3690SOL    HW111126   4.964   2.335   4.800 -0.6420 -1.0123 -1.2888
 3690SOL    HW211127   4.911   2.393   4.671 -0.4931  1.4543 -0.2946
 3691SOL     OW11128   2.537   4.556   3.278  0.0132 -0.1702  0.2095
 3691SOL    HW111129   2.601   4.485   3.278  0.4733  0.2444  1.0502
 3691SOL    HW211130   2.503   4.559   3.367 -2.1993 -1.2745 -0.5036
 3692SOL     OW11131   0.325   1.380   2.292 -0.7014 -0.1889 -0.3951
 3692SOL    HW111132   0.404   1.368   2.345 -1.3869 -0.8635  0.5027
 3692SOL    HW211133   0.355   1.429   2.216  0.3540  0.6093  0.5021
 3693SOL     OW11134   2.500   3.084   2.751 -0.5885 -0.9554 -0.0952
 3693SOL    HW111135   2.457   3.006   2.788 -1.6618 -0.7619 -0.8942
 3693SOL    HW211136   2.430   3.148   2.743  0.0375 -0.3303 -0.6184
 3694SOL     OW11137   2.768   3.561   2.374 -0.0449 -0.3826  0.1392
 3694SOL    HW111138   2.691   3.619   2.376  0.1208 -0.1337 -0.4785
 3694SOL    HW211139   2.731   3.472   2.374 -0.3973 -0.2676 -1.4848
 3695SOL     OW11140   1.586   1.435   3.825 -0.3365 -0.2544 -0.0642
 3695SOL    HW111141   1.648   1.500   3.791  0.8443 -0.7830  1.0168
 3695SOL    HW211142   1.638   1.380   3.884 -1.0824 -2.6856 -1.5135
 3696SOL     OW11143   2.978   1.200   3.402 -0.7523 -0.3506  0.6935
 3696SOL    HW111144   2.899   1.188   3.455 -0.7837  0.4285  0.8460
 3696SOL    HW211145   3.001   1.292   3.415 -1.5540  0.2740 -1.7577
 3697SOL     OW11146   0.885   3.497   0.367  0.0373 -0.0672 -0.3859
 3697SOL    HW111147   0.816   3.435   0.345 -0.2227  0.3410 -0.7257
 3697SOL    HW211148   0.889   3.496   0.463 -0.4850 -0.0415 -0.3655
 3698SOL     OW11149   0.469   3.337   2.227 -0.5684 -0.0830  0.3923
 3698SOL    HW111150   0.392   3.361   2.279 -1.9081 -0.2058 -1.4377
 3698SOL    HW211151   0.470   3.242   2.228  0.0509 -0.0807  1.0518
 3699SOL     OW11152   3.545   2.690   0.679  0.4657 -0.0713 -0.2290
 3699SOL    HW111153   3.584   2.773   0.651 -0.1991 -0.0263 -1.0566
 3699SOL    HW211154   3.452   2.709   0.687  0.6436 -0.0154  2.3470
 3700SOL     OW11155   4.047   0.845   4.113  0.3206 -0.1916 -0.1332
 3700SOL    HW111156   3.973   0.837   4.174 -0.8107  0.3478 -1.3851
 3700SOL    HW211157   4.057   0.939   4.100  0.2803 -0.3090 -1.0819
 3701SOL     OW11158   1.322   1.472   1.918  0.1729 -0.0683  0.2389
 3701SOL    HW111159   1.407   1.499   1.953  0.7343  0.5981 -1.5148
 3701SOL    HW211160   1.343   1.428   1.836 -1.2030  0.5577 -0.4773
 3702SOL     OW11161   0.785   0.861   2.730  0.4621  0.5579 -0.3302
 3702SOL    HW111162   0.874   0.861   2.695  2.0135  1.3037  3.1664
 3702SOL    HW211163   0.754   0.771   2.717  2.0734  0.0418 -0.8495
 3703SOL     OW11164   4.719   0.626   0.043  0.2326  0.4635  0.2874
 3703SOL    HW111165   4.643   0.571   0.024 -0.4331  2.0817 -2.1103
 3703SOL    HW211166   4.690   0.684   0.114 -0.7393  0.9547 -0.4970
 3704SOL     OW11167   3.865   1.190   4.324 -0.9110  0.4605 -0.1230
 3704SOL    HW111168   3.803   1.235   4.382 -0.6497  0.1657  0.3950
 3704SOL    HW211169   3.897   1.117   4.377  0.1117  0.7854 -0.2791
 3705SOL     OW11170   2.775   1.653   4.054 -0.4410  0.0462 -0.1457
 3705SOL    HW111171   2.832   1.695   3.990  0.8474  1.0511  1.5580
 3705SOL    HW211172   2.818   1.569   4.073  0.2463  0.5653  0.7290
 3706SOL     OW11173   4.547   3.274   2.735 -0.5452  0.2764  0.1219
 3706SOL    HW111174   4.626   3.322   2.759 -0.3618 -0.0680  0.2054
 3706SOL    HW211175   4.485   3.295   2.805 -0.7041  0.9691 -0.2204
 3707SOL     OW11176   3.300   4.146   4.130 -0.0644 -0.2931  0.3772
 3707SOL    HW111177   3.313   4.053   4.111  1.7041 -0.0126  0.0351
 3707SOL    HW211178   3.233   4.175   4.069  0.0391 -1.1450 -0.1481
 3708SOL     OW11179   3.748   2.559   4.509 -0.1685 -0.6184  0.0259
 3708SOL    HW111180   3.674   2.563   4.448  0.1981 -2.3762 -0.5867
 3708SOL    HW211181   3.752   2.468   4.536  0.8666 -0.2436  1.2362
 3709SOL     OW11182   0.555   2.153   4.451  0.3646  0.1946 -0.3670
 3709SOL    HW111183   0.531   2.069   4.489  1.6152 -0.3809 -0.8125
 3709SOL    HW211184   0.540   2.216   4.521  1.8121 -0.7326  0.8477
 3710SOL     OW11185   2.794   0.554   2.260 -0.1600  0.3019 -1.0608
 3710SOL    HW111186   2.875   0.580   2.304  0.6005  0.5464 -2.5444
 3710SOL    HW211187   2.728   0.615   2.293  0.5018  0.8093 -0.6651
 3711SOL     OW11188   3.446   1.867   1.927 -0.2288 -0.0884  0.0543
 3711SOL    HW111189   3.506   1.939   1.906  0.6720 -0.4092  1.3900
 3711SOL    HW211190   3.501   1.789   1.927 -1.0929 -0.7222 -0.8236
 3712SOL     OW11191   4.273   4.725   2.310  0.2470  0.4644  0.0970
 3712SOL    HW111192   4.281   4.811   2.350 -1.2557  0.3765  0.6782
 3712SOL    HW211193   4.179   4.716   2.292  0.1028 -1.6680  1.5224
 3713SOL     OW11194   1.479   2.229   4.028  0.2747 -0.2966  0.0826
 3713SOL    HW111195   1.531   2.207   3.951  0.0791  0.6151 -0.3265
 3713SOL    HW211196   1.398   2.264   3.993 -0.0483 -0.4008  0.7119
 3714SOL     OW11197   2.960   3.952   3.248 -0.4433 -0.4771 -0.6209
 3714SOL    HW111198   2.978   3.968   3.341 -1.9356  2.2911 -0.7163
 3714SOL    HW211199   2.892   3.885   3.249 -0.7192 -0.2027  0.3078
 3715SOL     OW11200   2.683   1.225   4.328  0.1603  0.8864  0.2441
 3715SOL    HW111201   2.627   1.156   4.294  0.2232  1.1028 -0.3065
 3715SOL    HW211202   2.740   1.181   4.392  1.4632  0.0446 -1.4116
 3716SOL     OW11203   0.665   2.797   0.284 -0.2518 -0.0378 -0.5059
 3716SOL    HW111204   0.712   2.728   0.237  1.5666  0.3367  0.6573
 3716SOL    HW211205   0.685   2.781   0.376 -0.6913  1.4140 -0.1348
 3717SOL     OW11206   3.355   1.448   3.786 -0.3408  0.0653  0.0896
 3717SOL    HW111207   3.298   1.525   3.793 -0.9575 -0.1397 -2.1297
 3717SOL    HW211208   3.315   1.383   3.844 -1.8853  0.2198 -0.7614
 3718SOL     OW11209   1.749   0.856   0.123 -0.2692  0.5311  0.0952
 3718SOL    HW111210   1.745   0.952   0.120  1.1753  0.7291  2.2896
 3718SOL    HW211211   1.838   0.835   0.095  0.3252  0.0686  2.1778
 3719SOL     OW11212   3.895   3.675   4.873  0.1811  0.0041 -0.2993
 3719SOL    HW111213   3.869   3.648   4.785  1.4970 -1.3059 -0.3211
 3719SOL    HW211214   3.929   3.764   4.861  1.2348 -0.5057 -1.3135
 3720SOL     OW11215   0.492   1.791   2.635 -0.3301  0.0526  0.1035
 3720SOL    HW111216   0.454   1.743   2.562 -0.7921 -0.4516  0.6635
 3720SOL    HW211217   0.584   1.804   2.610 -0.3291 -0.6637 -0.2868
 3721SOL     OW11218   3.295   2.442   4.049  0.6967  0.1548  0.1202
 3721SOL    HW111219   3.238   2.383   4.098  0.6032 -0.2111 -0.4235
 3721SOL    HW211220   3.240   2.518   4.029 -0.9879 -1.8396 -3.9020
 3722SOL     OW11221   1.968   1.138   3.655 -0.4670  0.1733  0.3426
 3722SOL    HW111222   2.044   1.194   3.671  0.2135 -0.7398  0.3405
 3722SOL    HW211223   1.933   1.119   3.742  0.3562 -0.8312  0.4681
 3723SOL     OW11224   4.467   2.145   3.160 -0.5115  0.0840  0.1505
 3723SOL    HW111225   4.477   2.132   3.254 -0.9949  0.6822  0.2863
 3723SOL    HW211226   4.553   2.124   3.124 -1.2213 -3.9673  0.2910
 3724SOL     OW11227   4.160   1.459   2.924  0.0352 -0.0603  0.3418
 3724SOL    HW111228   4.067   1.455   2.902  0.2105  0.8571 -0.6989
 3724SOL    HW211229   4.198   1.513   2.854  0.9691  1.4944  1.9677
 3725SOL     OW11230   4.731   4.053   1.655  0.1059  0.3449  0.0126
 3725SOL    HW111231   4.804   4.057   1.593  1.3636 -1.2729  1.2929
 3725SOL    HW211232   4.766   4.089   1.736 -0.6333 -0.1022  0.5470
 3726SOL     OW11233   3.324   3.711   4.757  0.7121  0.3471 -0.2369
 3726SOL    HW111234   3.419   3.705   4.771  0.8663  0.9626 -0.9674
 3726SOL    HW211235   3.315   3.737   4.666 -0.2608 -3.6756 -1.5055
 3727SOL     OW11236   2.212   4.910   1.021  0.4917  0.7304  0.0325
 3727SOL    HW111237   2.190   4.987   0.968  0.0150  0.5627 -0.0216
 3727SOL    HW211238   2.297   4.930   1.059  0.8554  0.8526 -0.8172
 3728SOL     OW11239   2.024   0.273   1.668 -0.1048 -0.4164  0.3815
 3728SOL    HW111240   2.053   0.187   1.637  0.3798 -0.3602  0.6583
 3728SOL    HW211241   2.049   0.333   1.598 -2.6753 -0.7991 -0.9456
 3729SOL     OW11242   0.095   2.859   3.423  0.2048 -0.1881 -0.9987
 3729SOL    HW111243   0.049   2.807   3.490 -1.3666 -0.4639 -2.2315
 3729SOL    HW211244   0.084   2.808   3.342 -0.4151  1.4916 -2.0176
 3730SOL     OW11245   3.924   0.543   4.631  0.1788  0.4363 -0.4629
 3730SOL    HW111246   3.954   0.517   4.543  1.9050 -0.6541  0.3924
 3730SOL    HW211247   3.986   0.612   4.656 -0.8798  1.4023 -0.4376
 3731SOL     OW11248   1.837   4.424   1.649  0.3729  0.2015  0.0254
 3731SOL    HW111249   1.806   4.447   1.561 -0.5260 -1.2603 -0.0613
 3731SOL    HW211250   1.845   4.509   1.694 -0.8746  0.8486 -0.9072
 3732SOL     OW11251   4.514   4.833   0.724 -0.6976  0.4411 -0.1199
 3732SOL    HW111252   4.449   4.903   0.723 -1.0371  0.1374 -2.0787
 3732SOL    HW211253   4.579   4.859   0.660 -0.0824 -0.3633  0.1589
 3733SOL     OW11254   4.880   0.359   2.329 -0.1515  0.0614 -0.0953
 3733SOL    HW111255   4.944   0.399   2.271 -1.5032  1.8154 -0.4544
 3733SOL    HW211256   4.843   0.432   2.378 -0.5492 -1.1352  1.4598
 3734SOL     OW11257   1.860   2.155   0.527  0.1185 -0.3096 -0.3381
 3734SOL    HW111258   1.847   2.063   0.546 -1.8755 -0.1940 -0.9415
 3734SOL    HW211259   1.952   2.172   0.551  0.1692 -2.1249  0.9205
 3735SOL     OW11260   0.701   2.769   2.328 -0.0946  0.2781 -0.0118
 3735SOL    HW111261   0.752   2.696   2.291 -1.1626 -0.6866  0.3386
 3735SOL    HW211262   0.727   2.773   2.420 -1.0697 -0.6500  0.3346
 3736SOL     OW11263   2.392   1.249   0.037 -0.4078 -0.2904  0.3095
 3736SOL    HW111264   2.419   1.319   0.097  0.0967  0.3772 -0.6717
 3736SOL    HW211265   2.434   1.170   0.072 -0.3877  0.0303  1.0188
 3737SOL     OW11266   2.217   4.547   2.371  0.4315  0.0661 -0.6020
 3737SOL    HW111267   2.209   4.573   2.463 -2.4237 -1.0403 -0.4197
 3737SOL    HW211268   2.266   4.465   2.374 -1.6283 -1.2040  0.2714
 3738SOL     OW11269   1.787   1.182   4.643 -0.0432  0.2352 -0.5396
 3738SOL    HW111270   1.791   1.216   4.732 -1.0161 -0.3667 -0.2393
 3738SOL    HW211271   1.778   1.259   4.587  1.4098  0.6708 -0.2045
 3739SOL     OW11272   2.074   3.178   0.371  0.5700 -0.1051  0.6341
 3739SOL    HW111273   2.073   3.173   0.276 -1.8618  2.1352  0.4352
 3739SOL    HW211274   2.127   3.103   0.398 -0.8288 -2.4042 -2.3771
 3740SOL     OW11275   2.818   3.475   4.977 -0.1167 -0.1338 -0.3416
 3740SOL    HW111276   2.798   3.402   5.035  0.3186  0.4639  0.5765
 3740SOL    HW211277   2.845   3.433   4.895  0.6012 -1.0105  0.3284
 3741SOL     OW11278   2.257   0.907   0.001  0.2346 -0.5711  0.0413
 3741SOL    HW111279   2.348   0.890  -0.022  0.3753 -0.4522  0.4948
 3741SOL    HW211280   2.260   0.935   0.092 -0.4548 -2.5481  0.7438
 3742SOL     OW11281   1.266   4.064   2.965  0.0862  0.0824  0.1251
 3742SOL    HW111282   1.184   4.023   2.994  0.0174  1.5091  2.1267
 3742SOL    HW211283   1.312   4.085   3.046  1.5231  1.1503 -0.9309
 3743SOL     OW11284   0.818   4.910   4.503  0.2981 -0.4475 -0.0004
 3743SOL    HW111285   0.803   4.944   4.415 -1.1596 -0.2289  0.3073
 3743SOL    HW211286   0.816   4.987   4.559 -0.2980 -0.7444  0.3923
 3744SOL     OW11287   2.459   3.938   4.037  0.0258 -0.4904  0.3175
 3744SOL    HW111288   2.451   4.031   4.057 -0.1351 -0.0322 -1.6622
 3744SOL    HW211289   2.524   3.934   3.966  0.5967 -1.9634  0.8826
 3745SOL     OW11290   0.588   0.612   2.869 -0.3940 -0.4503  0.3848
 3745SOL    HW111291   0.584   0.695   2.822  0.0716 -1.1340 -0.9152
 3745SOL    HW211292   0.522   0.557   2.827  1.7091 -1.9069 -1.2387
 3746SOL     OW11293   3.230   2.101   2.836  0.0220  0.0111  0.3968
 3746SOL    HW111294   3.157   2.107   2.899 -0.3914  2.2360 -0.2127
 3746SOL    HW211295   3.305   2.138   2.883 -0.0389  0.7136 -0.0458
 3747SOL     OW11296   0.179   3.420   3.441 -0.0942  0.0361  0.2742
 3747SOL    HW111297   0.220   3.414   3.527  0.2552 -0.6883  0.0747
 3747SOL    HW211298   0.235   3.366   3.385 -1.5586 -1.3766  0.0817
 3748SOL     OW11299   0.290   3.287   4.958  0.1737 -0.2363  0.1988
 3748SOL    HW111300   0.223   3.353   4.974  1.2540  0.8911  0.1505
 3748SOL    HW211301   0.307   3.292   4.864 -0.7539 -1.6029 -0.0762
 3749SOL     OW11302   0.502   3.053   1.869 -0.6870  0.1278  0.0830
 3749SOL    HW111303   0.594   3.041   1.893 -0.3630  0.9308 -0.7129
 3749SOL    HW211304   0.478   3.137   1.909 -1.2128 -0.2912  0.6618
 3750SOL     OW11305   4.270   0.200   0.021  0.8222 -0.4266  0.4811
 3750SOL    HW111306   4.355   0.245   0.016  1.5928 -1.5862  2.2577
 3750SOL    HW211307   4.207   0.270   0.037  1.3209  0.5060 -1.2903
 3751SOL     OW11308   3.895   4.888   2.579  0.2347  0.0898  0.4537
 3751SOL    HW111309   3.954   4.963   2.573 -2.6084  2.5359  0.6101
 3751SOL    HW211310   3.898   4.862   2.671  1.0281  0.1705  0.4575
 3752SOL     OW11311   2.978   0.605   1.482 -0.0733 -0.0404  0.5034
 3752SOL    HW111312   2.914   0.644   1.422  1.6520 -0.3738 -1.7119
 3752SOL    HW211313   2.999   0.521   1.442  1.2186 -0.2360  1.5357
 3753SOL     OW11314   3.039   2.573   4.711  0.3971  0.6369  0.3808
 3753SOL    HW111315   3.109   2.522   4.751  0.3773  0.4820  0.2150
 3753SOL    HW211316   2.996   2.513   4.651 -0.1712  0.5962  0.8230
 3754SOL     OW11317   4.176   1.812   4.332 -0.1693 -0.1450 -0.2825
 3754SOL    HW111318   4.245   1.842   4.273 -0.7568 -0.9768 -1.4443
 3754SOL    HW211319   4.190   1.717   4.337 -0.2516 -0.1026  0.7681
 3755SOL     OW11320   2.885   3.874   2.934  0.1384  0.6031  0.0557
 3755SOL    HW111321   2.908   3.805   2.872  1.1922  0.7584  0.2420
 3755SOL    HW211322   2.793   3.859   2.955  0.1349 -0.2524 -0.5257
 3756SOL     OW11323   0.301   2.471   1.110 -0.0646  0.4237 -0.5018
 3756SOL    HW111324   0.242   2.466   1.185  0.4872 -1.0434 -0.1342
 3756SOL    HW211325   0.388   2.460   1.148  0.3014  0.7880 -1.2336
 3757SOL     OW11326   0.241   1.585   4.091  0.3652  0.0337  0.4977
 3757SOL    HW111327   0.334   1.565   4.089  0.3565  0.0165  0.2407
 3757SOL    HW211328   0.228   1.630   4.175  0.4027 -0.9467  1.0493
 3758SOL     OW11329   3.240   4.994   2.991  0.4916 -0.0423 -0.0613
 3758SOL    HW111330   3.289   4.918   3.024  0.6260  0.3306  0.6100
 3758SOL    HW211331   3.167   4.956   2.943 -0.2020 -0.6292  1.3835
 3759SOL     OW11332   3.308   1.973   3.927  0.2732  0.2408  0.0853
 3759SOL    HW111333   3.331   1.883   3.950  1.3747  0.1855 -1.1415
 3759SOL    HW211334   3.243   1.999   3.993 -0.2156 -1.5124  0.3376
 3760SOL     OW11335   2.477   4.206   4.147 -0.5323  0.7959 -0.8085
 3760SOL    HW111336   2.510   4.211   4.237 -1.6780 -0.0566 -0.3033
 3760SOL    HW211337   2.552   4.230   4.092  1.2581 -1.9640  0.1991
 3761SOL     OW11338   4.167   3.015   1.912 -0.1596 -0.1297  0.0247
 3761SOL    HW111339   4.251   3.031   1.954  0.0570  0.8258 -0.7534
 3761SOL    HW211340   4.134   3.102   1.890  0.3874 -0.6078 -3.0187
 3762SOL     OW11341   2.767   2.021   2.968 -0.0459  0.1600  0.2010
 3762SOL    HW111342   2.776   1.933   3.005 -0.2669 -0.0322 -0.1892
 3762SOL    HW211343   2.802   2.079   3.035 -2.0457 -0.0146  1.4868
 3763SOL     OW11344   1.584   2.435   4.372 -0.0590 -0.0371 -0.0479
 3763SOL    HW111345   1.572   2.342   4.351 -0.1157  0.1713 -0.9899
 3763SOL    HW211346   1.665   2.437   4.422 -0.5225 -0.6942  0.7539
 3764SOL     OW11347   0.170   1.844   2.261  0.1520  0.1486 -0.3069
 3764SOL    HW111348   0.093   1.802   2.224  1.3391 -0.7976 -1.8602
 3764SOL    HW211349   0.214   1.775   2.311  0.4375  0.4410 -0.1416
 3765SOL     OW11350   1.113   1.550   2.101  0.2246  0.0282  0.2311
 3765SOL    HW111351   1.195   1.522   2.061  0.0756  0.6282 -0.5040
 3765SOL    HW211352   1.107   1.497   2.181  0.9091 -0.6213 -0.1280
 3766SOL     OW11353   1.406   1.404   1.039 -0.2129 -0.1432 -0.1669
 3766SOL    HW111354   1.429   1.455   0.961 -1.6674 -1.7160 -1.7057
 3766SOL    HW211355   1.430   1.461   1.113  2.0921  1.0243 -1.6999
 3767SOL     OW11356   0.089   3.996   2.795 -0.8394 -0.2655 -0.3126
 3767SOL    HW111357   0.075   4.088   2.773  0.2738 -0.1305 -0.5260
 3767SOL    HW211358   0.003   3.956   2.789 -1.5389  0.9837  0.8346
 3768SOL     OW11359   1.384   4.767   3.104  0.4962  0.1866  0.7802
 3768SOL    HW111360   1.318   4.697   3.100  0.0756  0.6028  0.2258
 3768SOL    HW211361   1.430   4.752   3.187  0.2358 -0.5855  0.7979
 3769SOL     OW11362   2.007   4.723   0.882  0.2516  0.0553 -0.1177
 3769SOL    HW111363   2.064   4.768   0.945  0.8926 -0.7608 -0.1030
 3769SOL    HW211364   1.977   4.792   0.823  0.0293  0.7514  0.7801
 3770SOL     OW11365   4.006   4.514   2.577  0.7970  0.1896 -0.1818
 3770SOL    HW111366   4.065   4.573   2.623  0.4915 -0.6610  1.3918
 3770SOL    HW211367   3.920   4.530   2.616  0.4641 -0.3614 -0.6658
 3771SOL     OW11368   3.837   2.141   4.823 -0.2413 -0.2104  0.1784
 3771SOL    HW111369   3.798   2.098   4.899 -1.6180  0.0917 -0.3320
 3771SOL    HW211370   3.883   2.216   4.860 -1.1535  0.1094  0.7110
 3772SOL     OW11371   0.077   3.192   0.203  0.1338 -0.0128  0.5938
 3772SOL    HW111372   0.124   3.215   0.284  1.9753 -2.7639  0.4580
 3772SOL    HW211373   0.139   3.210   0.133 -0.7837  0.6350 -0.0757
 3773SOL     OW11374   1.488   4.704   4.477 -0.3369  0.3443  0.4201
 3773SOL    HW111375   1.442   4.778   4.438 -1.0684  0.2804  1.1501
 3773SOL    HW211376   1.573   4.740   4.504 -0.6853  0.9162  0.7645
 3774SOL     OW11377   2.549   2.512   3.255  0.1125  0.3457  0.1056
 3774SOL    HW111378   2.524   2.420   3.260  0.5387  0.1594 -0.8674
 3774SOL    HW211379   2.552   2.542   3.346  0.5550 -0.7633  0.4682
 3775SOL     OW11380   3.180   0.700   3.563  0.3677  0.0434 -0.2362
 3775SOL    HW111381   3.224   0.641   3.625  0.8268  1.8933  1.2968
 3775SOL    HW211382   3.251   0.743   3.515  0.2034  1.3098  0.5950
 3776SOL     OW11383   0.973   2.670   4.286 -0.4930  0.2433  0.0722
 3776SOL    HW111384   1.010   2.755   4.310  0.1354 -0.5865  2.2987
 3776SOL    HW211385   1.047   2.620   4.252 -0.2111 -0.3312  1.4663
 3777SOL     OW11386   2.876   4.181   3.105  0.2404 -0.1467  0.5227
 3777SOL    HW111387   2.865   4.146   3.016 -1.6142  1.5349  0.0093
 3777SOL    HW211388   2.933   4.118   3.149 -1.0186 -2.4960 -1.0190
 3778SOL     OW11389   4.971   3.414   1.190 -0.4282  0.7895 -0.3090
 3778SOL    HW111390   4.922   3.496   1.175 -1.0568  0.4165 -0.3280
 3778SOL    HW211391   5.023   3.402   1.111 -0.0909  1.3325 -0.1781
 3779SOL     OW11392   4.460   0.594   4.314 -0.3670 -0.2536 -0.1209
 3779SOL    HW111393   4.517   0.575   4.240 -1.1913 -0.9913 -0.5835
 3779SOL    HW211394   4.393   0.654   4.278 -0.6839 -0.4970  0.0592
 3780SOL     OW11395   0.120   3.119   0.632 -0.2681  0.1319 -0.0792
 3780SOL    HW111396   0.052   3.060   0.600 -0.2780  0.8017 -1.3972
 3780SOL    HW211397   0.147   3.082   0.716 -0.8357 -1.2676 -0.4832
 3781SOL     OW11398   4.029   2.799   0.010 -0.0070  0.1624  0.8046
 3781SOL    HW111399   3.978   2.748   0.073 -1.3076 -0.3536 -0.5977
 3781SOL    HW211400   4.006   2.890   0.030 -1.6663 -0.0668  0.1052
 3782SOL     OW11401   4.485   3.061   4.240  0.0077  0.4894  0.0498
 3782SOL    HW111402   4.418   2.992   4.235  0.9207 -0.5122  1.0526
 3782SOL    HW211403   4.510   3.077   4.149 -1.1529  0.4463 -0.2894
 3783SOL     OW11404   0.155   0.701   0.941  0.3692 -0.5726 -0.3974
 3783SOL    HW111405   0.225   0.761   0.965 -0.3994  0.7410 -1.2819
 3783SOL    HW211406   0.077   0.756   0.935 -0.4681 -1.7524 -0.7441
 3784SOL     OW11407   3.851   1.300   2.360 -0.1343 -0.4757 -0.5329
 3784SOL    HW111408   3.918   1.258   2.413 -1.2715  0.7291  2.0240
 3784SOL    HW211409   3.776   1.240   2.362 -0.1842 -0.4256 -0.7976
 3785SOL     OW11410   4.823   4.529   1.291 -0.2462 -0.1488 -0.4793
 3785SOL    HW111411   4.824   4.623   1.271 -0.8668 -0.1912 -0.7252
 3785SOL    HW211412   4.912   4.511   1.321 -1.0825  1.3747  3.4944
 3786SOL     OW11413   3.864   0.497   0.816 -0.2508  0.2446 -0.0159
 3786SOL    HW111414   3.772   0.523   0.825 -0.1029  0.3361  1.5418
 3786SOL    HW211415   3.874   0.423   0.876 -0.1737 -2.3147 -2.9394
 3787SOL     OW11416   2.489   2.721   1.369  0.0043  0.4004 -0.0147
 3787SOL    HW111417   2.474   2.772   1.290 -0.0648  0.7562  0.2262
 3787SOL    HW211418   2.514   2.634   1.337 -1.0145  0.2421 -0.4274
 3788SOL     OW11419   1.620   3.671   1.894 -0.6469  0.0018  0.0003
 3788SOL    HW111420   1.563   3.594   1.898  0.5365 -0.8877  3.1065
 3788SOL    HW211421   1.572   3.739   1.942 -0.1989  0.0424  0.4031
 3789SOL     OW11422   2.429   1.525   3.737  0.8347  0.3045  0.3470
 3789SOL    HW111423   2.392   1.464   3.674 -0.0971  1.5127 -0.3116
 3789SOL    HW211424   2.514   1.548   3.701  1.9248 -1.7592  1.3953
 3790SOL     OW11425   1.442   0.491   1.090  0.2528 -0.0295 -0.7317
 3790SOL    HW111426   1.526   0.466   1.054  2.1907  1.4305  2.3284
 3790SOL    HW211427   1.389   0.412   1.087  1.7946 -1.0673 -2.4558
 3791SOL     OW11428   2.226   0.457   4.691  0.3136  0.2770 -0.5390
 3791SOL    HW111429   2.167   0.440   4.617  0.0044  1.1450 -0.5061
 3791SOL    HW211430   2.221   0.552   4.703  0.2122  0.1171  0.7299
 3792SOL     OW11431   3.111   2.852   0.034  0.0524  0.3304 -0.1237
 3792SOL    HW111432   3.163   2.926   0.066 -1.8337  0.5467  2.7809
 3792SOL    HW211433   3.151   2.776   0.077 -0.0251  0.0861 -0.4890
 3793SOL     OW11434   0.764   1.885   3.392 -0.2511  0.6578 -0.2692
 3793SOL    HW111435   0.754   1.939   3.313  0.9120 -0.0323 -0.9082
 3793SOL    HW211436   0.834   1.824   3.371 -0.3847  0.0072  1.0680
 3794SOL     OW11437   3.164   1.663   3.738  0.6145  0.2833 -0.3834
 3794SOL    HW111438   3.163   1.748   3.693  0.7702  0.3902 -0.1857
 3794SOL    HW211439   3.114   1.605   3.680 -1.0614  0.9423  0.3346
 3795SOL     OW11440   2.996   1.212   4.190 -0.2047  0.2395 -0.0340
 3795SOL    HW111441   3.018   1.139   4.249  1.1096  0.5798 -0.0644
 3795SOL    HW211442   3.081   1.241   4.156 -0.9660 -0.6437 -2.9577
 3796SOL     OW11443   1.129   2.835   0.925  0.7239  0.0685 -0.4697
 3796SOL    HW111444   1.210   2.786   0.907  1.8976  1.0038  1.8450
 3796SOL    HW211445   1.073   2.773   0.972 -0.8707 -1.2291 -3.7662
 3797SOL     OW11446   0.716   2.081   3.633 -0.0899  0.2470  0.0254
 3797SOL    HW111447   0.795   2.135   3.634  0.1564 -0.1016 -0.6459
 3797SOL    HW211448   0.678   2.095   3.546  0.1552 -0.9140 -0.2821
 3798SOL     OW11449   3.829   4.538   3.005 -0.0029 -0.2977 -0.1006
 3798SOL    HW111450   3.885   4.464   2.982  1.4499  0.4235  0.9773
 3798SOL    HW211451   3.742   4.514   2.972  0.4279 -2.4770  0.2348
 3799SOL     OW11452   0.171   4.716   2.286  0.1665 -0.6215 -0.0690
 3799SOL    HW111453   0.080   4.738   2.307  0.4714 -0.0476  0.6725
 3799SOL    HW211454   0.222   4.747   2.361  1.5098  2.8886 -2.1773
 3800SOL     OW11455   1.205   4.064   4.215 -0.2864  0.4698  0.1026
 3800SOL    HW111456   1.247   3.998   4.160  0.0160  0.6595  0.1021
 3800SOL    HW211457   1.113   4.061   4.191  0.0181  1.4035 -1.3183
 3801SOL     OW11458   3.903   4.987   2.334  0.2721  0.3007  0.5124
 3801SOL    HW111459   3.947   4.931   2.271 -1.1054 -1.5514  1.1133
 3801SOL    HW211460   3.893   4.933   2.412 -0.6250  1.5675  1.3207
 3802SOL     OW11461   1.631   4.435   0.849  0.5209  0.2516  0.3332
 3802SOL    HW111462   1.606   4.344   0.862  0.4467  0.0895 -0.8379
 3802SOL    HW211463   1.562   4.486   0.891  2.0959 -0.1825  3.7821
 3803SOL     OW11464   1.134   3.239   0.572  0.7279 -0.1292  0.0518
 3803SOL    HW111465   1.116   3.316   0.625 -1.1135 -0.8682  0.5696
 3803SOL    HW211466   1.137   3.272   0.482 -0.7766  0.4787  0.1884
 3804SOL     OW11467   3.446   3.238   3.528  0.4355  0.9158 -0.0764
 3804SOL    HW111468   3.538   3.253   3.548  0.5543  1.4396 -0.9649
 3804SOL    HW211469   3.407   3.215   3.612  1.5652 -0.3466  0.1370
 3805SOL     OW11470   1.232   3.184   1.811 -0.5222  0.5497  0.2211
 3805SOL    HW111471   1.217   3.253   1.875  0.3369  0.8453  0.1251
 3805SOL    HW211472   1.256   3.108   1.864  0.3755  0.8444  0.2699
 3806SOL     OW11473   4.671   4.400   2.556 -0.4470  0.1600  0.5497
 3806SOL    HW111474   4.608   4.362   2.495  0.6632 -0.6757 -0.1125
 3806SOL    HW211475   4.634   4.486   2.578 -0.9470  0.4208 -1.1736
 3807SOL     OW11476   1.963   4.538   0.694 -0.6413 -0.3756  0.2875
 3807SOL    HW111477   1.889   4.579   0.649 -0.9341 -0.4550  0.6980
 3807SOL    HW211478   1.986   4.600   0.763  0.7192  0.4258 -0.8374
 3808SOL     OW11479   4.447   3.379   0.444 -0.1495 -0.1882  0.3629
 3808SOL    HW111480   4.383   3.429   0.393  0.8621 -1.3962 -2.2438
 3808SOL    HW211481   4.532   3.408   0.411  0.5350 -1.3685  1.0427
 3809SOL     OW11482   4.334   1.957   3.006 -0.1208  0.3531 -0.4024
 3809SOL    HW111483   4.373   2.032   3.050  1.0286  0.2471 -1.1998
 3809SOL    HW211484   4.409   1.903   2.980 -0.8732 -0.4821 -0.8855
 3810SOL     OW11485   1.953   3.427   4.278 -0.3100  0.1546 -0.3796
 3810SOL    HW111486   1.861   3.445   4.298 -0.2131  1.3622 -0.9466
 3810SOL    HW211487   2.000   3.455   4.357 -0.5722 -2.6677  0.8971
 3811SOL     OW11488   2.153   0.028   4.549 -0.5760 -0.1204 -0.3208
 3811SOL    HW111489   2.069   0.010   4.591  0.0353  0.4264  1.2218
 3811SOL    HW211490   2.187   0.105   4.595  2.3494 -2.3270  1.6457
 3812SOL     OW11491   2.952   4.775   0.560  0.6773  0.2613 -0.1503
 3812SOL    HW111492   2.925   4.747   0.472  2.4602 -0.3540 -0.5525
 3812SOL    HW211493   2.922   4.705   0.618  1.3816 -0.4148 -0.5809
 3813SOL     OW11494   4.887   2.916   0.662  0.2101  0.3122 -0.0435
 3813SOL    HW111495   4.882   2.919   0.566  0.3873  0.4362 -0.0485
 3813SOL    HW211496   4.890   2.823   0.683 -1.2787  0.2317 -0.0846
 3814SOL     OW11497   4.271   4.571   1.091  0.7288 -0.3190 -0.0971
 3814SOL    HW111498   4.235   4.484   1.076  1.7659 -0.9554  0.9288
 3814SOL    HW211499   4.318   4.593   1.011 -1.1486  0.1683 -1.1262
 3815SOL     OW11500   0.333   4.640   0.370 -0.5499 -0.2123  0.0512
 3815SOL    HW111501   0.246   4.622   0.333 -1.7283 -1.0295  2.8885
 3815SOL    HW211502   0.340   4.735   0.370 -0.1599 -0.1675 -2.7447
 3816SOL     OW11503   2.855   1.822   2.793  0.3664 -0.3613  0.5124
 3816SOL    HW111504   2.844   1.916   2.805 -1.0494 -0.7144  2.3596
 3816SOL    HW211505   2.769   1.790   2.766  0.6407 -1.2378  0.6212
 3817SOL     OW11506   4.295   1.205   3.224  0.4267  0.0542  0.6857
 3817SOL    HW111507   4.243   1.156   3.161 -0.9314  0.2476  1.6087
 3817SOL    HW211508   4.385   1.175   3.210  0.0702 -0.3680 -0.8765
 3818SOL     OW11509   0.995   3.001   1.436 -0.1540 -0.1900 -1.0653
 3818SOL    HW111510   0.989   2.927   1.376 -2.3836 -1.4180  0.5256
 3818SOL    HW211511   1.069   3.052   1.404  1.6352 -3.1985 -2.1257
 3819SOL     OW11512   0.611   2.076   0.282 -0.3311 -0.1197 -0.2662
 3819SOL    HW111513   0.656   2.015   0.223 -1.2379  0.1863 -1.3210
 3819SOL    HW211514   0.524   2.037   0.294 -1.3854  1.5133 -1.9813
 3820SOL     OW11515   0.213   1.027   3.663  0.0048 -0.2865 -0.5528
 3820SOL    HW111516   0.309   1.021   3.666  0.0249  0.3537  0.6678
 3820SOL    HW211517   0.182   0.948   3.707 -0.0135 -0.1266 -0.2774
 3821SOL     OW11518   2.080   0.955   0.529  0.3876  0.0136 -0.0479
 3821SOL    HW111519   2.016   0.889   0.554 -1.4156  2.1501  1.3842
 3821SOL    HW211520   2.054   1.034   0.577  3.6580  1.2446 -0.0140
 3822SOL     OW11521   4.006   4.252   3.636 -0.6363 -0.4691 -0.2343
 3822SOL    HW111522   3.927   4.297   3.607 -1.6553 -1.8017  0.3495
 3822SOL    HW211523   3.982   4.215   3.721  1.3380  0.9400  1.0263
 3823SOL     OW11524   4.857   4.855   1.691 -0.0442 -0.0068 -0.2936
 3823SOL    HW111525   4.880   4.880   1.781  0.6554 -0.3413 -0.3766
 3823SOL    HW211526   4.896   4.769   1.679  0.6774  0.4315 -1.2348
 3824SOL     OW11527   4.144   1.998   4.023  0.6028 -0.1413 -0.2716
 3824SOL    HW111528   4.182   2.066   4.080  1.5470 -0.8063 -0.0786
 3824SOL    HW211529   4.071   2.042   3.980 -0.3064  0.3359  1.6242
 3825SOL     OW11530   1.335   3.075   0.101 -0.1672 -0.5301 -0.2588
 3825SOL    HW111531   1.401   3.145   0.108 -1.0333  0.2669  0.1331
 3825SOL    HW211532   1.365   3.022   0.027 -0.0949  0.9128 -1.3059
 3826SOL     OW11533   3.701   2.987   4.188 -0.2447  0.0377 -0.3832
 3826SOL    HW111534   3.650   2.971   4.267 -0.6201  0.6258 -0.4986
 3826SOL    HW211535   3.791   2.969   4.214 -0.6076 -2.3104 -0.5421
 3827SOL     OW11536   0.533   1.918   4.621 -0.8729 -0.1660  1.1954
 3827SOL    HW111537   0.502   1.830   4.603 -1.1625 -0.2457  2.0276
 3827SOL    HW211538   0.492   1.942   4.704 -1.4750  1.0923  0.5570
 3828SOL     OW11539   4.626   0.902   2.821 -0.3850 -0.5489 -0.1928
 3828SOL    HW111540   4.608   0.995   2.831  0.2720 -0.2891 -1.2612
 3828SOL    HW211541   4.718   0.897   2.795 -0.5805 -1.4426 -0.7895
 3829SOL     OW11542   2.727   0.046   4.453 -0.1038  0.1546  0.3364
 3829SOL    HW111543   2.738   0.069   4.545  0.2383 -1.7016  0.8113
 3829SOL    HW211544   2.635   0.019   4.447 -0.3220  0.9515 -0.0534
 3830SOL     OW11545   0.282   1.126   0.332  0.4628 -0.4424 -0.6130
 3830SOL    HW111546   0.214   1.110   0.267  0.4287  0.8370 -0.9199
 3830SOL    HW211547   0.360   1.081   0.296  0.3595 -0.0367 -1.3706
 3831SOL     OW11548   4.511   0.092   2.121  0.1052  0.0604  0.2089
 3831SOL    HW111549   4.551   0.117   2.038  1.9551  1.0781  1.3383
 3831SOL    HW211550   4.521   0.169   2.177 -2.4396 -0.0719  0.9620
 3832SOL     OW11551   2.809   1.407   4.205 -0.1584  0.3034 -0.1445
 3832SOL    HW111552   2.893   1.361   4.204  0.5871  1.5841  0.9569
 3832SOL    HW211553   2.749   1.347   4.250 -0.0143 -0.8534 -1.4307
 3833SOL     OW11554   0.199   3.735   4.157  0.8172  0.7312 -0.0040
 3833SOL    HW111555   0.158   3.714   4.073 -0.0907  0.5177  0.4762
 3833SOL    HW211556   0.213   3.651   4.199 -0.0138  0.8850  0.6281
 3834SOL     OW11557   3.897   4.271   3.355  0.1831 -1.2205 -0.1765
 3834SOL    HW111558   3.843   4.305   3.426 -0.5321 -2.7708  0.0692
 3834SOL    HW211559   3.889   4.335   3.285 -0.4406 -0.4828  0.5517
 3835SOL     OW11560   0.369   4.495   2.162  0.1611 -0.7338 -0.4002
 3835SOL    HW111561   0.412   4.463   2.241 -0.6137 -0.7095  0.0406
 3835SOL    HW211562   0.276   4.475   2.175 -0.1728  0.5705 -0.6509
 3836SOL     OW11563   2.169   3.727   2.460 -0.3562 -0.1604  0.2018
 3836SOL    HW111564   2.082   3.704   2.493 -0.3764 -0.8255 -0.3140
 3836SOL    HW211565   2.160   3.819   2.433 -0.3699  0.3989  1.9241
 3837SOL     OW11566   2.619   4.251   3.568  0.1612  0.0707  0.4518
 3837SOL    HW111567   2.695   4.213   3.524 -0.3713 -0.5774  0.0601
 3837SOL    HW211568   2.625   4.345   3.552 -0.5773 -0.2250 -1.9673
 3838SOL     OW11569   1.280   3.848   4.064 -0.1805  0.1396 -0.8063
 3838SOL    HW111570   1.286   3.772   4.121 -2.6544  0.9441  0.6656
 3838SOL    HW211571   1.268   3.811   3.976  0.1989 -1.1362 -0.3449
 3839SOL     OW11572   0.413   0.299   2.014  0.1226  0.0614 -0.5056
 3839SOL    HW111573   0.478   0.275   1.949 -0.4108  0.0739 -1.0545
 3839SOL    HW211574   0.417   0.230   2.080  0.9327  0.2486 -0.3508
 3840SOL     OW11575   3.517   0.072   1.959 -0.6929  1.2514 -0.1137
 3840SOL    HW111576   3.605   0.067   1.922 -1.0943  0.6092 -1.0430
 3840SOL    HW211577   3.524   0.028   2.044 -0.4171 -0.1214 -0.8199
 3841SOL     OW11578   0.490   1.424   3.094 -0.1054 -0.5689  0.5775
 3841SOL    HW111579   0.447   1.473   3.024  0.3876 -0.9601 -0.0031
 3841SOL    HW211580   0.578   1.404   3.060  0.1290 -0.7930  1.2875
 3842SOL     OW11581   1.189   2.994   3.748  0.0853  0.8817  0.1340
 3842SOL    HW111582   1.106   2.961   3.783  0.8207 -1.8579 -0.5146
 3842SOL    HW211583   1.168   3.021   3.659 -0.3408  1.4355  0.3899
 3843SOL     OW11584   0.632   0.263   1.813  0.0607 -0.4077  0.0529
 3843SOL    HW111585   0.654   0.341   1.761  0.0192 -0.8846 -0.6972
 3843SOL    HW211586   0.566   0.217   1.760 -0.9835 -0.2232  1.1644
 3844SOL     OW11587   1.559   0.795   2.589 -0.2103  0.0038  0.0795
 3844SOL    HW111588   1.585   0.749   2.510  1.2757  1.2264 -0.1878
 3844SOL    HW211589   1.491   0.740   2.628 -1.1337 -0.5378 -2.1308
 3845SOL     OW11590   2.981   1.197   1.963  0.4811 -0.0812 -0.0129
 3845SOL    HW111591   2.904   1.218   2.017  1.5989  1.6508  0.9950
 3845SOL    HW211592   2.956   1.117   1.916 -2.1511  0.7371 -0.1803
 3846SOL     OW11593   1.051   2.208   4.182 -0.3118 -0.1142 -0.2500
 3846SOL    HW111594   0.986   2.190   4.249  0.4585 -1.6066  0.1359
 3846SOL    HW211595   1.000   2.229   4.104 -1.2212  1.5603  0.7332
 3847SOL     OW11596   1.108   4.613   4.129  0.1208 -0.0188 -0.0507
 3847SOL    HW111597   1.203   4.628   4.124  0.2964 -0.2465  1.9012
 3847SOL    HW211598   1.093   4.539   4.070  0.8341  1.1411 -1.7864
 3848SOL     OW11599   4.860   0.095   3.042  0.5462  0.8093 -0.0978
 3848SOL    HW111600   4.873   0.067   2.951 -0.5840 -0.7604  0.1875
 3848SOL    HW211601   4.786   0.044   3.073  0.2955  2.0119  1.4405
 3849SOL     OW11602   3.636   4.713   3.707  0.7040  0.7106  0.0506
 3849SOL    HW111603   3.604   4.793   3.750 -3.4666 -0.6543  0.0065
 3849SOL    HW211604   3.628   4.731   3.614 -0.4760  0.2409  0.0420
 3850SOL     OW11605   4.665   4.561   0.711 -0.0870  0.5058  0.0680
 3850SOL    HW111606   4.602   4.493   0.688  0.2736  0.4334 -0.7342
 3850SOL    HW211607   4.617   4.643   0.697 -0.3160  0.4315  0.4098
 3851SOL     OW11608   2.858   3.855   2.181 -0.6340  0.0399  0.0186
 3851SOL    HW111609   2.838   3.799   2.106 -2.2481  0.9613 -0.2806
 3851SOL    HW211610   2.775   3.897   2.203  0.1351  0.9367  1.3866
 3852SOL     OW11611   2.310   0.188   1.535 -0.2109  0.2809  0.4584
 3852SOL    HW111612   2.330   0.182   1.442 -1.9739  1.7974 -0.0873
 3852SOL    HW211613   2.266   0.106   1.556 -0.4652  0.2394 -0.2371
 3853SOL     OW11614   1.840   2.843   3.271  0.0288 -0.5884 -0.1835
 3853SOL    HW111615   1.877   2.806   3.351  0.8283 -0.6142 -0.5578
 3853SOL    HW211616   1.897   2.917   3.250 -0.6486 -0.0905 -0.2925
 3854SOL     OW11617   1.471   0.210   0.242 -0.5264  0.0590  0.6780
 3854SOL    HW111618   1.417   0.192   0.319  0.8063  0.3466  1.7164
 3854SOL    HW211619   1.498   0.301   0.252  0.8757 -0.3250  0.6751
 3855SOL     OW11620   0.628   4.423   1.766  1.1078 -0.1550 -0.3828
 3855SOL    HW111621   0.706   4.439   1.713  0.3774 -0.0447 -1.4583
 3855SOL    HW211622   0.570   4.497   1.746  0.7072 -0.2616  0.3595
 3856SOL     OW11623   1.511   3.300   3.272 -0.1064 -0.1525  0.3037
 3856SOL    HW111624   1.502   3.262   3.360  0.9821  0.1067  0.5458
 3856SOL    HW211625   1.432   3.353   3.261 -0.8846 -1.2191  0.5877
 3857SOL     OW11626   0.314   1.527   0.035 -0.2979 -0.2290  0.3504
 3857SOL    HW111627   0.247   1.490   0.093 -1.8635  1.1345 -0.5072
 3857SOL    HW211628   0.289   1.618   0.024  0.8158 -0.0719 -1.2611
 3858SOL     OW11629   2.298   2.486   1.311 -0.0187  0.2952 -0.3667
 3858SOL    HW111630   2.352   2.463   1.236  0.8738 -2.4630  0.9888
 3858SOL    HW211631   2.322   2.423   1.379 -1.8454  1.7188  1.7670
 3859SOL     OW11632   1.098   1.371   3.807  0.1453  0.1261 -0.8437
 3859SOL    HW111633   1.057   1.402   3.888  1.4498  2.1770 -0.9086
 3859SOL    HW211634   1.026   1.331   3.758 -0.7976 -0.5635  1.0217
 3860SOL     OW11635   2.603   1.695   3.125 -0.3056 -0.1327  0.2735
 3860SOL    HW111636   2.554   1.614   3.131  0.7043 -0.7430  0.6606
 3860SOL    HW211637   2.610   1.725   3.216 -0.6883  0.4002  0.1316
 3861SOL     OW11638   4.329   3.646   3.920  0.1749 -0.1441 -0.4697
 3861SOL    HW111639   4.394   3.689   3.864  1.7323 -1.4840  0.2240
 3861SOL    HW211640   4.282   3.717   3.963  0.2076  0.8781 -2.0459
 3862SOL     OW11641   0.320   2.729   0.645 -0.0130 -0.4656  0.3885
 3862SOL    HW111642   0.289   2.689   0.726  0.9697 -1.6029  0.2284
 3862SOL    HW211643   0.313   2.659   0.580  1.6950 -0.4040  0.0863
 3863SOL     OW11644   3.345   3.282   1.102  0.3310  0.5993  0.7848
 3863SOL    HW111645   3.385   3.259   1.186  0.7600  0.8659  0.6558
 3863SOL    HW211646   3.418   3.315   1.049 -0.2826  2.4823  1.0345
 3864SOL     OW11647   3.123   1.051   0.531  0.7594  0.6326  0.0828
 3864SOL    HW111648   3.195   1.024   0.474 -0.5043  1.3786 -1.9826
 3864SOL    HW211649   3.100   1.139   0.500 -2.1397 -0.2453 -0.5599
 3865SOL     OW11650   3.217   3.644   1.272  0.5535  0.1958  0.0884
 3865SOL    HW111651   3.204   3.647   1.177 -0.2322  0.8761  0.2110
 3865SOL    HW211652   3.218   3.550   1.293  1.5018  0.0174 -0.6808
 3866SOL     OW11653   2.052   2.016   3.286 -0.5600 -0.4658 -0.4807
 3866SOL    HW111654   2.060   1.976   3.373  0.6405  2.0250  0.6545
 3866SOL    HW211655   2.139   2.009   3.248 -0.4090  0.7173 -0.3863
 3867SOL     OW11656   4.226   0.309   2.655 -0.3030  0.6232  0.4557
 3867SOL    HW111657   4.310   0.336   2.694 -0.9468  0.7521  1.7995
 3867SOL    HW211658   4.248   0.289   2.564  1.5565 -1.1458  1.2138
 3868SOL     OW11659   4.452   0.382   4.907 -0.0072 -0.1852  0.4066
 3868SOL    HW111660   4.472   0.364   4.815  1.6698  0.5153  0.5787
 3868SOL    HW211661   4.388   0.453   4.904  0.4368  0.2039 -0.2428
 3869SOL     OW11662   0.339   2.331   3.556  0.7673  0.4501 -0.1945
 3869SOL    HW111663   0.359   2.424   3.545  1.3444  0.2519 -0.8151
 3869SOL    HW211664   0.302   2.326   3.645  1.9408  1.0693  0.3517
 3870SOL     OW11665   2.489   2.773   4.662 -0.3604  0.0537  0.4084
 3870SOL    HW111666   2.443   2.780   4.746 -1.0346 -0.3185  0.0762
 3870SOL    HW211667   2.543   2.853   4.658 -0.3548  0.0956  1.1693
 3871SOL     OW11668   0.318  -0.027   4.406  0.3041  0.0287  0.4656
 3871SOL    HW111669   0.381   0.032   4.366  0.5176 -1.1360 -0.9902
 3871SOL    HW211670   0.296   0.014   4.490  1.6269  1.3476  0.1952
 3872SOL     OW11671   1.044   3.912   3.021  0.3525 -0.1784 -0.1607
 3872SOL    HW111672   1.054   3.828   3.065 -0.8851  0.5052  1.5509
 3872SOL    HW211673   0.954   3.910   2.987  0.7959 -0.0914 -1.3824
 3873SOL     OW11674   3.611   1.597   2.782 -0.4383  0.2403  0.2924
 3873SOL    HW111675   3.575   1.686   2.786  0.0498  0.3979  1.8811
 3873SOL    HW211676   3.534   1.541   2.771 -0.7019  0.8674 -1.3641
 3874SOL     OW11677   4.432   1.431   3.349  0.1251 -0.2732 -0.4824
 3874SOL    HW111678   4.363   1.473   3.297 -0.3115 -0.4253 -0.0392
 3874SOL    HW211679   4.412   1.337   3.342  1.5274 -0.4980 -2.0817
 3875SOL     OW11680   2.339   2.594   0.788  0.5755  0.5503  0.3944
 3875SOL    HW111681   2.285   2.563   0.716 -0.8237 -0.7685  1.9417
 3875SOL    HW211682   2.289   2.666   0.827  0.8203  0.5691  0.6844
 3876SOL     OW11683   4.888   1.595   3.073 -0.0247 -0.5262  0.0280
 3876SOL    HW111684   4.925   1.639   3.149 -1.1873 -0.6967  0.7163
 3876SOL    HW211685   4.845   1.517   3.108 -1.7415  0.0777 -0.5874
 3877SOL     OW11686   4.916   2.047   1.278  0.0928  0.5184  0.2570
 3877SOL    HW111687   5.000   2.015   1.311  0.5005 -0.3161 -1.4706
 3877SOL    HW211688   4.938   2.092   1.197 -1.0160  1.2671  0.3584
 3878SOL     OW11689   2.118   2.473   1.918  0.3572 -0.1946 -0.1722
 3878SOL    HW111690   2.043   2.465   1.860  0.2825 -0.5656 -0.0243
 3878SOL    HW211691   2.132   2.385   1.953 -0.1649  0.2031  1.0801
 3879SOL     OW11692   2.399   2.326   2.577 -0.5223  0.3968  0.0991
 3879SOL    HW111693   2.463   2.292   2.514 -0.5093  1.9464 -0.7973
 3879SOL    HW211694   2.453   2.371   2.643 -0.4675 -2.0931  1.8718
 3880SOL     OW11695   2.334   2.136   2.838 -0.8489  0.1455  0.3119
 3880SOL    HW111696   2.359   2.147   2.930  0.1960 -1.5416  0.2668
 3880SOL    HW211697   2.414   2.153   2.789 -1.5468  1.6326 -0.3624
 3881SOL     OW11698   4.123   3.131   1.064  0.1753  0.3693 -0.0007
 3881SOL    HW111699   4.076   3.048   1.074  1.3899 -0.1867  1.3383
 3881SOL    HW211700   4.168   3.144   1.148  2.9419  0.5452 -1.4098
 3882SOL     OW11701   3.785   2.707   1.026 -0.5150 -0.0082  0.1083
 3882SOL    HW111702   3.781   2.701   1.121  1.0274  0.4041  0.2235
 3882SOL    HW211703   3.761   2.619   0.996 -1.6292  0.0293  0.8393
 3883SOL     OW11704   3.828   4.931   0.001  0.5640 -0.1061  0.4518
 3883SOL    HW111705   3.855   5.023   0.007 -2.6069  0.9852  0.1009
 3883SOL    HW211706   3.784   4.914   0.084 -0.6909 -0.5913 -0.2818
 3884SOL     OW11707   0.998   3.134   3.960 -0.0761  0.0945 -0.4068
 3884SOL    HW111708   1.011   3.074   3.887  1.0487  1.9044 -1.7868
 3884SOL    HW211709   1.065   3.110   4.024  0.3912 -0.1029 -0.9652
 3885SOL     OW11710   3.078   2.454   4.393  0.4329  0.1940  0.5040
 3885SOL    HW111711   3.078   2.370   4.439 -0.7227  0.9629  1.9815
 3885SOL    HW211712   2.988   2.465   4.362  0.7290  0.6170 -0.2361
 3886SOL     OW11713   0.564   2.297   1.731  0.2659 -0.3611  0.2066
 3886SOL    HW111714   0.577   2.392   1.739  1.8543 -0.6050  0.9539
 3886SOL    HW211715   0.511   2.273   1.807  0.0179 -0.1047  0.1177
 3887SOL     OW11716   2.887   2.880   4.585  0.1958 -0.0608  0.0419
 3887SOL    HW111717   2.804   2.842   4.557  0.1556 -0.3253  0.5079
 3887SOL    HW211718   2.954   2.824   4.545  0.1384 -1.1180  1.3480
 3888SOL     OW11719   1.719   3.822   4.183 -0.6840 -0.0170  0.0466
 3888SOL    HW111720   1.777   3.823   4.106 -2.0507  0.6761 -1.0232
 3888SOL    HW211721   1.695   3.914   4.196  0.7572  0.1133  2.3293
 3889SOL     OW11722   1.790   1.360   3.976  0.7065 -0.2305  0.4818
 3889SOL    HW111723   1.819   1.269   3.983 -0.4551 -0.4854  4.0071
 3889SOL    HW211724   1.868   1.407   3.944  1.5091 -2.3231 -0.8342
 3890SOL     OW11725   0.798   0.041   4.223  0.4084  0.1256  0.1009
 3890SOL    HW111726   0.794   0.117   4.165  0.4754 -0.3521 -0.5338
 3890SOL    HW211727   0.867  -0.014   4.187  0.1944 -0.3591  0.4167
 3891SOL     OW11728   4.557   0.136   2.714  0.0203 -0.4082 -0.3422
 3891SOL    HW111729   4.502   0.107   2.787  0.7206 -1.1957 -0.1189
 3891SOL    HW211730   4.621   0.195   2.755 -1.4879  1.6875 -0.8111
 3892SOL     OW11731   3.522   1.208   2.124  0.0116 -0.3448 -0.3255
 3892SOL    HW111732   3.558   1.147   2.189  1.4747 -0.5528 -1.2733
 3892SOL    HW211733   3.440   1.167   2.096 -1.1974  0.2403  2.0476
 3893SOL     OW11734   1.139   2.521   1.507 -0.3155 -0.5327  0.8240
 3893SOL    HW111735   1.179   2.458   1.567  1.5655  1.0883  1.3575
 3893SOL    HW211736   1.178   2.605   1.530 -0.9777  0.4705 -1.4204
 3894SOL     OW11737   0.740   4.858   0.373  0.1117  0.0242 -0.4154
 3894SOL    HW111738   0.723   4.854   0.468  0.1640  2.0871 -0.2855
 3894SOL    HW211739   0.812   4.796   0.360 -0.1085 -0.5381  0.8212
 3895SOL     OW11740   4.772   0.308   1.434 -0.6298 -0.2411  0.2774
 3895SOL    HW111741   4.808   0.395   1.448 -1.7826  0.5512 -1.2942
 3895SOL    HW211742   4.773   0.297   1.339 -2.0467 -1.2273  0.3363
 3896SOL     OW11743   3.184   4.968   2.319 -0.3128  0.3816  0.0741
 3896SOL    HW111744   3.108   4.980   2.262  0.6919 -0.0020 -1.4051
 3896SOL    HW211745   3.198   4.873   2.322 -2.7990 -0.1123  4.4008
 3897SOL     OW11746   4.905   2.817   4.009  0.4404  0.2027  0.1318
 3897SOL    HW111747   4.837   2.883   3.997 -0.4537 -0.5169  1.1183
 3897SOL    HW211748   4.956   2.847   4.084 -0.9785 -1.0054  1.6450
 3898SOL     OW11749   0.346   1.874   2.856  0.0621 -0.1705 -0.2715
 3898SOL    HW111750   0.410   1.832   2.798  0.9957 -0.3794  0.8706
 3898SOL    HW211751   0.320   1.953   2.809 -0.7275 -1.3115 -1.8676
 3899SOL     OW11752   3.419   0.104   4.442  0.1314  0.3741  0.8075
 3899SOL    HW111753   3.512   0.109   4.420 -0.4019  0.9174 -1.6800
 3899SOL    HW211754   3.384   0.041   4.379 -1.0022 -0.8865  2.6003
 3900SOL     OW11755   2.495   1.251   3.730 -0.0079  0.1110  0.2095
 3900SOL    HW111756   2.532   1.172   3.771 -0.3717 -0.0118  0.3006
 3900SOL    HW211757   2.533   1.323   3.781 -1.2500 -0.0636  1.4626
 3901SOL     OW11758   0.644   0.284   2.674 -0.1785  0.5188  0.1856
 3901SOL    HW111759   0.604   0.298   2.588  0.6546  2.2433  0.0353
 3901SOL    HW211760   0.722   0.231   2.656 -1.9912 -2.4344  0.4213
 3902SOL     OW11761   4.055   1.581   1.875 -0.3071 -0.0359  0.2987
 3902SOL    HW111762   4.042   1.599   1.968 -0.0853  1.1839  0.1081
 3902SOL    HW211763   4.136   1.531   1.871 -0.9507 -1.1719  0.8481
 3903SOL     OW11764   3.166   1.392   2.205  0.6218  0.4230 -0.0152
 3903SOL    HW111765   3.137   1.455   2.139  1.1733 -0.1864 -0.8728
 3903SOL    HW211766   3.194   1.445   2.279  1.1722  1.2014 -0.7587
 3904SOL     OW11767   0.185   0.735   2.756 -0.8555 -0.0350 -0.0997
 3904SOL    HW111768   0.237   0.786   2.818 -0.4165 -0.4515 -0.1158
 3904SOL    HW211769   0.246   0.668   2.724 -1.4271 -0.5745 -0.0625
 3905SOL     OW11770   0.117   2.585   2.609  0.0875 -0.3232 -0.3870
 3905SOL    HW111771   0.151   2.496   2.624 -0.3171 -0.4261 -0.0741
 3905SOL    HW211772   0.048   2.573   2.544  1.9851  0.1470 -2.6604
 3906SOL     OW11773   2.050   2.139   4.180  0.9193 -0.5966  0.0462
 3906SOL    HW111774   2.058   2.060   4.233  1.6459 -0.5016  0.0986
 3906SOL    HW211775   1.972   2.126   4.127 -0.8253  0.0301  2.3420
 3907SOL     OW11776   3.828   3.248   4.838  0.2776 -0.0544  0.0110
 3907SOL    HW111777   3.878   3.321   4.875  0.8661 -0.5028  0.0963
 3907SOL    HW211778   3.774   3.289   4.770 -1.7593  1.0121  2.0966
 3908SOL     OW11779   1.224   1.163   3.060  0.0713 -0.2499  0.5775
 3908SOL    HW111780   1.192   1.252   3.075 -0.3554  0.1381 -2.2062
 3908SOL    HW211781   1.319   1.171   3.063  0.0602 -0.1895  2.4802
 3909SOL     OW11782   2.593   0.724   2.375  0.6673  0.1774  0.7045
 3909SOL    HW111783   2.616   0.816   2.387  0.2805  0.2407  1.0005
 3909SOL    HW211784   2.514   0.713   2.428  0.0478 -0.0456 -0.2520
 3910SOL     OW11785   0.141   4.449   3.133 -0.4084 -0.5649 -0.4479
 3910SOL    HW111786   0.126   4.526   3.077  0.1929 -1.2450 -1.5916
 3910SOL    HW211787   0.076   4.385   3.103 -0.7549 -0.5934  0.3431
 3911SOL     OW11788   1.595   4.893   3.970  0.1241 -0.6856 -0.6962
 3911SOL    HW111789   1.633   4.806   3.960  0.1439 -0.4997 -2.4068
 3911SOL    HW211790   1.503   4.877   3.990 -0.2387 -1.1342 -2.5367
 3912SOL     OW11791   0.222   2.091   3.443  0.0569 -0.4635  0.2777
 3912SOL    HW111792   0.297   2.031   3.435  0.5256  0.0389  0.7996
 3912SOL    HW211793   0.246   2.148   3.516  0.0663  1.0009 -0.8362
 3913SOL     OW11794   0.763   3.614   0.899  0.4355 -0.0100  0.2830
 3913SOL    HW111795   0.782   3.614   0.805  0.8277  1.3117  0.3371
 3913SOL    HW211796   0.678   3.571   0.907  0.7232 -0.7572 -0.5984
 3914SOL     OW11797   3.044   0.739   1.701 -0.3580  0.2490  0.3064
 3914SOL    HW111798   3.074   0.665   1.753  0.2611  1.2709  1.4767
 3914SOL    HW211799   3.045   0.708   1.611  0.0486 -1.0975  0.7605
 3915SOL     OW11800   3.611   1.144   0.486 -0.2128 -0.4710  0.3517
 3915SOL    HW111801   3.567   1.220   0.448  2.2041  0.1491 -1.4891
 3915SOL    HW211802   3.595   1.152   0.580 -0.7075  1.8791  0.1358
 3916SOL     OW11803   0.251   2.107   3.126 -0.2398  0.0191  0.2254
 3916SOL    HW111804   0.315   2.178   3.134  0.6528 -0.3791 -2.3958
 3916SOL    HW211805   0.221   2.092   3.215  2.5934  0.9028  1.4558
 3917SOL     OW11806   4.359   0.517   3.942 -0.1763 -0.0520  0.2975
 3917SOL    HW111807   4.342   0.595   3.890 -0.3240 -1.9110 -2.7477
 3917SOL    HW211808   4.436   0.539   3.994 -0.5230  2.2521 -0.0491
 3918SOL     OW11809   3.480   3.674   0.836 -0.2033 -0.0854 -0.6664
 3918SOL    HW111810   3.480   3.741   0.768 -3.0144  0.2665 -0.4258
 3918SOL    HW211811   3.515   3.719   0.913 -0.3264  0.5564 -0.9791
 3919SOL     OW11812   3.437   0.358   1.480  0.8416 -0.8586  0.3540
 3919SOL    HW111813   3.512   0.325   1.529 -2.1757 -1.1096  5.4986
 3919SOL    HW211814   3.418   0.443   1.520 -1.2340 -0.4389 -1.3346
 3920SOL     OW11815   1.307   4.891   4.295 -0.2891  0.2096 -0.1266
 3920SOL    HW111816   1.326   4.980   4.265 -0.3032  0.4194  0.4870
 3920SOL    HW211817   1.220   4.872   4.259 -0.6492  0.7624  0.4430
 3921SOL     OW11818   4.649   3.589   0.915  0.0102  0.1359  0.0964
 3921SOL    HW111819   4.727   3.535   0.900 -1.3091 -1.4388 -1.3607
 3921SOL    HW211820   4.625   3.622   0.829 -0.8551  0.7617  0.5590
 3922SOL     OW11821   4.606   3.275   3.383  0.0977 -0.1268 -0.0037
 3922SOL    HW111822   4.614   3.351   3.442  0.6773 -0.0862 -0.1240
 3922SOL    HW211823   4.693   3.235   3.385 -0.8456 -2.2953  2.0419
 3923SOL     OW11824   0.102   2.142   4.866 -0.1005 -0.5108  0.0630
 3923SOL    HW111825   0.177   2.151   4.807  0.3198 -1.2122  0.4807
 3923SOL    HW211826   0.137   2.162   4.953 -0.9122  1.3944  0.0000
 3924SOL     OW11827   4.947   0.618   2.646  0.2777 -0.2394  0.1335
 3924SOL    HW111828   4.948   0.644   2.554  2.0217  0.2636  0.2584
 3924SOL    HW211829   5.009   0.677   2.689 -0.0366 -0.8691  1.5280
 3925SOL     OW11830   0.562   0.855   0.605  0.4790 -0.0628  0.1888
 3925SOL    HW111831   0.601   0.911   0.673  0.7375  0.0741 -0.0754
 3925SOL    HW211832   0.481   0.823   0.646  0.1570  0.7703  0.2268
 3926SOL     OW11833   2.883   2.058   3.699 -0.1509  0.4500 -0.1483
 3926SOL    HW111834   2.831   2.135   3.676 -3.2557 -1.1875  0.8522
 3926SOL    HW211835   2.956   2.093   3.750 -0.5452  2.8466 -1.1017
 3927SOL     OW11836   0.254   2.945   1.914  0.2530 -0.0505 -0.3630
 3927SOL    HW111837   0.336   2.995   1.915  0.6477 -0.6307 -1.4859
 3927SOL    HW211838   0.193   2.997   1.967  2.1138 -1.0570  3.0466
 3928SOL     OW11839   2.369   3.852   0.864 -0.4154  0.7727 -0.2786
 3928SOL    HW111840   2.393   3.792   0.934 -0.7588  0.8257 -0.1117
 3928SOL    HW211841   2.414   3.934   0.886  2.4039 -0.1649 -1.9969
 3929SOL     OW11842   2.984   3.115   0.816  0.5674  0.1216  0.4353
 3929SOL    HW111843   3.064   3.111   0.870  1.3367  2.3191 -0.4202
 3929SOL    HW211844   2.970   3.209   0.801 -0.8640 -0.3249 -1.3805
 3930SOL     OW11845   1.418   3.866   2.763 -0.2375  0.4938 -0.4331
 3930SOL    HW111846   1.505   3.886   2.799 -0.0367 -0.7276 -0.1622
 3930SOL    HW211847   1.358   3.921   2.812  0.0559 -0.9165  1.6602
 3931SOL     OW11848   0.255   4.623   4.909 -0.1566  0.1343  0.0456
 3931SOL    HW111849   0.298   4.708   4.899 -0.9538  0.6350  0.7231
 3931SOL    HW211850   0.178   4.628   4.852 -1.4694  0.7719  1.7736
 3932SOL     OW11851   3.659   0.089   2.615  0.0744  0.2483 -0.0028
 3932SOL    HW111852   3.592   0.072   2.549  1.5498  0.2529 -1.6022
 3932SOL    HW211853   3.707   0.007   2.623  1.0636  0.7617 -0.3598
 3933SOL     OW11854   3.691   2.818   0.162 -0.1847  0.1246 -0.3241
 3933SOL    HW111855   3.694   2.914   0.170 -0.8679  0.1923 -0.7973
 3933SOL    HW211856   3.652   2.789   0.245  0.1395  0.2386 -0.1265
 3934SOL     OW11857   3.729   0.418   4.959 -0.4126  0.2210 -0.0498
 3934SOL    HW111858   3.674   0.378   4.891  0.1735 -1.9847  0.6730
 3934SOL    HW211859   3.682   0.401   5.040  1.3251 -1.9164  0.6117
 3935SOL     OW11860   2.127   3.578   0.123  0.2199  0.1976 -0.2348
 3935SOL    HW111861   2.220   3.597   0.133  0.6160 -1.1800 -1.1178
 3935SOL    HW211862   2.116   3.554   0.031 -0.5507 -1.9731  0.3589
 3936SOL     OW11863   2.970   3.790   1.296  0.4164 -0.2098  0.2039
 3936SOL    HW111864   3.055   3.752   1.274  0.5191 -0.7959  1.4856
 3936SOL    HW211865   2.942   3.741   1.373 -1.0730  0.0079 -0.1798
 3937SOL     OW11866   4.698   1.380   2.233  0.2547  0.4257  0.0950
 3937SOL    HW111867   4.636   1.309   2.246  0.9322 -0.2563 -0.3471
 3937SOL    HW211868   4.703   1.424   2.318  0.6791 -0.7481  0.6962
 3938SOL     OW11869   4.506   3.337   4.272  0.4710  0.1976 -0.6256
 3938SOL    HW111870   4.433   3.366   4.218 -0.6895 -0.7806  0.3794
 3938SOL    HW211871   4.497   3.242   4.277 -0.4683  0.3251  2.5689
 3939SOL     OW11872   4.448   2.563   1.539 -0.5204  0.5903  0.6487
 3939SOL    HW111873   4.517   2.612   1.493 -0.8406 -0.1545 -0.6680
 3939SOL    HW211874   4.484   2.550   1.627  1.0595  0.1884 -0.0087
 3940SOL     OW11875   1.891   0.237   4.693  0.2399  0.6459 -0.2887
 3940SOL    HW111876   1.911   0.284   4.775 -1.9488  0.6216  0.3319
 3940SOL    HW211877   1.840   0.300   4.642  0.0713  0.0553 -0.8582
 3941SOL     OW11878   3.860   0.925   3.051 -0.0852  0.0060 -0.0660
 3941SOL    HW111879   3.855   1.006   3.101  0.9650 -0.8991  1.5613
 3941SOL    HW211880   3.863   0.953   2.960  0.9038  1.8172  0.4982
 3942SOL     OW11881   3.095   0.544   4.937  0.3493  0.3649 -0.8179
 3942SOL    HW111882   3.179   0.588   4.924  1.5878 -1.9348 -0.9851
 3942SOL    HW211883   3.095   0.518   5.029 -1.2485  2.3368 -0.1910
 3943SOL     OW11884   1.745   0.901   4.762 -0.2092 -0.6399 -0.2649
 3943SOL    HW111885   1.763   0.952   4.683  0.5405 -0.1000  0.2468
 3943SOL    HW211886   1.649   0.899   4.768 -0.2560  0.0428 -0.7224
 3944SOL     OW11887   0.822   0.867   2.123  0.4106  0.0491  0.3642
 3944SOL    HW111888   0.865   0.943   2.084  2.6083 -1.2784  0.0462
 3944SOL    HW211889   0.825   0.883   2.217  0.0370  0.7517  0.2614
 3945SOL     OW11890   1.688   2.312   3.694 -0.2870 -0.0967  0.0380
 3945SOL    HW111891   1.660   2.237   3.747  0.9603 -0.3337  0.3944
 3945SOL    HW211892   1.639   2.304   3.612  0.3335 -1.7044 -0.2090
 3946SOL     OW11893   4.012   2.755   4.132 -0.5390 -0.6059 -0.3732
 3946SOL    HW111894   3.969   2.751   4.217 -0.3968  0.6225 -0.2214
 3946SOL    HW211895   4.087   2.813   4.146 -0.4868 -0.4312 -1.3099
 3947SOL     OW11896   1.424   0.764   3.224 -0.0384  0.2436 -0.6731
 3947SOL    HW111897   1.416   0.706   3.299  1.4337  0.6920 -0.1431
 3947SOL    HW211898   1.339   0.808   3.218 -0.6177 -0.7700 -0.1088
 3948SOL     OW11899   2.843   4.105   2.556  0.3085  0.2354 -0.1009
 3948SOL    HW111900   2.888   4.179   2.514  0.5494  1.0261  1.4381
 3948SOL    HW211901   2.910   4.037   2.563  0.8995  0.8869  0.8920
 3949SOL     OW11902   0.383   0.583   2.677 -0.2742  0.7328 -0.3624
 3949SOL    HW111903   0.340   0.508   2.635  1.1988  0.0235 -0.6634
 3949SOL    HW211904   0.427   0.627   2.605  1.0907  0.3330  0.2098
 3950SOL     OW11905   1.236   0.490   3.081 -0.1838 -0.0198  0.4657
 3950SOL    HW111906   1.313   0.440   3.052  0.3187  0.4739  0.9286
 3950SOL    HW211907   1.254   0.509   3.173 -0.6230  0.5467  0.4354
 3951SOL     OW11908   1.231   4.902   4.580 -0.4615 -0.6680  0.3566
 3951SOL    HW111909   1.277   4.963   4.637  0.4265 -1.3664  0.4062
 3951SOL    HW211910   1.232   4.943   4.494 -1.2355  0.0911  0.7006
 3952SOL     OW11911   4.750   4.305   4.614  0.1225  0.1518 -0.0527
 3952SOL    HW111912   4.817   4.348   4.559 -0.7491  0.7878 -0.6419
 3952SOL    HW211913   4.677   4.289   4.554 -0.4847 -0.0065  0.7182
 3953SOL     OW11914   2.628   2.676   4.443  0.1114  0.0164  0.5610
 3953SOL    HW111915   2.618   2.745   4.377 -0.0345 -1.4106 -0.9754
 3953SOL    HW211916   2.567   2.700   4.512 -0.2531  1.2047 -0.1434
 3954SOL     OW11917   3.333   3.884   4.159  1.2068  0.7005 -0.6967
 3954SOL    HW111918   3.242   3.863   4.178  0.2902  0.2329 -4.6936
 3954SOL    HW211919   3.383   3.821   4.212 -0.8587 -0.5244 -0.0775
 3955SOL     OW11920   1.659   2.071   1.739  0.5901 -0.1861  0.4044
 3955SOL    HW111921   1.649   2.023   1.821  0.6017  1.6400  1.5214
 3955SOL    HW211922   1.661   2.163   1.764 -3.4163  0.8099 -1.9389
 3956SOL     OW11923   1.567   3.269   1.326 -0.1159  0.5375 -1.0503
 3956SOL    HW111924   1.588   3.363   1.323 -0.2052  0.5497 -1.3295
 3956SOL    HW211925   1.636   3.231   1.381 -1.0147  1.0056  0.4528
 3957SOL     OW11926   4.407   3.599   1.654  0.0632 -0.2390 -0.0236
 3957SOL    HW111927   4.347   3.613   1.581  0.5604 -1.9424 -0.8147
 3957SOL    HW211928   4.492   3.630   1.622 -0.0155  0.4212  0.3997
 3958SOL     OW11929   1.987   1.820   3.500  0.1357  0.1151  0.2341
 3958SOL    HW111930   1.952   1.774   3.424  0.6178  0.7111 -0.3640
 3958SOL    HW211931   1.912   1.867   3.536 -0.0170  0.1254 -0.0918
 3959SOL     OW11932   2.476   3.277   2.160 -0.2348  0.4484 -0.3067
 3959SOL    HW111933   2.469   3.362   2.202 -0.2859  0.4429 -0.3036
 3959SOL    HW211934   2.479   3.297   2.066  1.9313  0.6107 -0.2712
 3960SOL     OW11935   1.911   1.110   3.978 -0.1706 -0.1363  0.2171
 3960SOL    HW111936   2.006   1.111   3.968 -0.3354  0.4510 -1.5478
 3960SOL    HW211937   1.893   1.026   4.022  1.0815 -0.6721 -0.2421
 3961SOL     OW11938   3.136   0.048   4.423 -0.3874  0.3965 -0.4788
 3961SOL    HW111939   3.201   0.111   4.454  1.0344 -0.2315 -2.0354
 3961SOL    HW211940   3.093   0.092   4.350  0.9655 -0.5714 -1.9025
 3962SOL     OW11941   0.889   3.804   3.759 -0.2562  0.0350 -0.6081
 3962SOL    HW111942   0.948   3.842   3.824  1.0376 -0.8441 -1.2277
 3962SOL    HW211943   0.884   3.711   3.782 -0.0472 -0.2219 -1.5606
 3963SOL     OW11944   4.205   1.548   3.183  0.7330 -0.5343  0.2679
 3963SOL    HW111945   4.214   1.517   3.093  0.6391  0.0330  0.0591
 3963SOL    HW211946   4.114   1.530   3.205  0.1824  1.1671 -0.4663
 3964SOL     OW11947   0.425   3.284   1.969 -0.7750 -0.1933 -0.4012
 3964SOL    HW111948   0.420   3.309   2.061 -2.3525 -1.3067 -0.1420
 3964SOL    HW211949   0.438   3.366   1.922  0.9280  0.3078  0.8380
 3965SOL     OW11950   3.182   2.160   1.577  0.0478 -0.0293  0.4748
 3965SOL    HW111951   3.187   2.137   1.669  3.1046  1.2733  0.7459
 3965SOL    HW211952   3.255   2.113   1.536  0.8715  2.0565 -0.5852
 3966SOL     OW11953   4.945   3.432   2.342  0.0705  0.0855 -0.2996
 3966SOL    HW111954   4.959   3.437   2.248  2.2735  0.1185 -0.0322
 3966SOL    HW211955   4.927   3.522   2.369 -1.6139 -0.0761 -0.7830
 3967SOL     OW11956   3.338   1.873   4.325  0.0487  0.6435 -1.1986
 3967SOL    HW111957   3.377   1.946   4.276  0.5544  0.2148 -1.4503
 3967SOL    HW211958   3.410   1.811   4.336  0.1947  1.0737  0.8160
 3968SOL     OW11959   3.388   0.584   4.518  0.5339  0.4546  0.3375
 3968SOL    HW111960   3.401   0.677   4.537  0.8556  0.3986  0.3944
 3968SOL    HW211961   3.476   0.548   4.513  0.4241  0.2758 -0.3078
 3969SOL     OW11962   0.731   4.593   3.776  0.2238 -0.2647  0.3871
 3969SOL    HW111963   0.668   4.524   3.794  0.6255 -0.6727  0.2609
 3969SOL    HW211964   0.739   4.596   3.681 -0.0113  0.1619  0.3764
 3970SOL     OW11965   4.152   2.014   0.958  0.2205 -0.5022 -0.0052
 3970SOL    HW111966   4.199   2.091   0.927  0.6400 -1.0137 -0.6866
 3970SOL    HW211967   4.181   2.003   1.049 -0.1076  0.3328  0.2039
 3971SOL     OW11968   2.100   3.153   2.137  0.0898 -0.1140  0.0415
 3971SOL    HW111969   2.193   3.131   2.145  0.4201  0.2947 -2.0435
 3971SOL    HW211970   2.055   3.069   2.146  0.8266 -0.6299 -0.8209
 3972SOL     OW11971   2.236   1.803   3.590 -0.3183  0.0544 -0.1687
 3972SOL    HW111972   2.230   1.791   3.685  0.6956 -2.1057 -0.3107
 3972SOL    HW211973   2.145   1.810   3.561 -0.6221  1.9039  1.0255
 3973SOL     OW11974   1.919   1.135   2.457  0.7284 -0.2237  0.0131
 3973SOL    HW111975   1.961   1.190   2.523  1.5301  1.2729 -1.6774
 3973SOL    HW211976   1.848   1.091   2.504  1.4311  0.5838  1.9138
 3974SOL     OW11977   1.491   3.888   4.647 -0.0605  0.2965  0.1653
 3974SOL    HW111978   1.498   3.969   4.596 -2.6931 -0.0331 -0.8747
 3974SOL    HW211979   1.452   3.915   4.730 -2.0915  0.0042 -0.6481
 3975SOL     OW11980   4.355   0.671   0.719 -0.0204 -0.1141  0.2387
 3975SOL    HW111981   4.422   0.674   0.651 -0.2161  0.2955  0.0573
 3975SOL    HW211982   4.322   0.761   0.724  2.1413  0.6950  3.0512
 3976SOL     OW11983   0.027   4.519   2.101 -0.1132  0.2065 -0.1439
 3976SOL    HW111984   0.084   4.569   2.159 -1.0573  2.0490 -0.7586
 3976SOL    HW211985  -0.054   4.509   2.151  0.3849 -1.6821  0.3875
 3977SOL     OW11986   3.225   4.069   0.225  0.0505  0.2275 -0.2460
 3977SOL    HW111987   3.307   4.110   0.197  0.6492 -0.1413  0.9420
 3977SOL    HW211988   3.223   3.985   0.179  0.0359  0.4937 -0.7395
 3978SOL     OW11989   1.828   0.152   0.766  0.3146 -0.0746 -0.0928
 3978SOL    HW111990   1.838   0.216   0.696  0.1329 -0.2643 -0.2966
 3978SOL    HW211991   1.797   0.203   0.842  1.2868  0.2598  0.0915
 3979SOL     OW11992   1.461   1.554   0.820 -0.0174 -0.0582 -0.3618
 3979SOL    HW111993   1.487   1.541   0.729  1.0693  1.2050 -0.2608
 3979SOL    HW211994   1.459   1.649   0.831  0.6422 -0.1925  1.1454
 3980SOL     OW11995   3.956   2.519   0.719  0.1841  0.5427 -0.2643
 3980SOL    HW111996   3.914   2.603   0.737 -0.6800 -0.3296  2.2959
 3980SOL    HW211997   4.033   2.519   0.777 -0.6403 -0.9720  0.8826
 3981SOL     OW11998   3.606   0.617   1.294  0.5534  0.0430 -0.4018
 3981SOL    HW111999   3.538   0.612   1.362  1.4887  0.3934  0.5771
 3981SOL    HW212000   3.657   0.537   1.306  0.4821 -0.0945 -0.9784
 3982SOL     OW12001   2.631   3.388   1.639  0.2939 -0.4749 -0.1934
 3982SOL    HW112002   2.599   3.298   1.629 -0.5723 -0.0766 -1.1451
 3982SOL    HW212003   2.726   3.379   1.643  0.2839 -1.3634 -1.3442
 3983SOL     OW12004   0.567   2.486   3.180 -0.5743 -0.6433  0.1696
 3983SOL    HW112005   0.542   2.577   3.196 -1.4166 -0.7348 -0.5598
 3983SOL    HW212006   0.610   2.458   3.261  1.7058  1.0512 -0.3380
 3984SOL     OW12007   0.971   1.059   0.363 -0.4307  0.2604  0.0445
 3984SOL    HW112008   1.028   0.985   0.344 -1.3229 -0.5619  0.4450
 3984SOL    HW212009   0.949   1.095   0.277  0.2460  0.2475 -0.1385
 3985SOL     OW12010   3.814   4.180   0.907 -0.1856  0.6548  1.1588
 3985SOL    HW112011   3.875   4.254   0.904  1.0522 -0.3097  1.6368
 3985SOL    HW212012   3.748   4.207   0.971 -0.7511  2.0421  0.0638
 3986SOL     OW12013   2.158   2.974   2.567  0.5132  0.2329 -0.2344
 3986SOL    HW112014   2.224   2.923   2.615  0.3925 -0.3999 -0.7191
 3986SOL    HW212015   2.208   3.045   2.526  0.6714  0.5715  0.5252
 3987SOL     OW12016   2.027   4.998   3.186  0.7695 -0.2125 -0.0538
 3987SOL    HW112017   1.933   4.978   3.185  1.2597 -2.8820  0.5830
 3987SOL    HW212018   2.067   4.925   3.233  3.2416  0.5753 -0.7683
 3988SOL     OW12019   0.321   3.790   3.753 -0.2238  0.1765 -0.0487
 3988SOL    HW112020   0.353   3.865   3.803 -0.0596  0.9320 -1.2275
 3988SOL    HW212021   0.346   3.714   3.804  1.5053  0.8447  0.1558
 3989SOL     OW12022   4.859   1.625   3.415 -0.1725 -0.1882 -0.2222
 3989SOL    HW112023   4.848   1.531   3.429 -0.5893 -0.0392  0.4981
 3989SOL    HW212024   4.780   1.664   3.451  0.9477  0.6140  1.5131
 3990SOL     OW12025   2.309   4.356   4.366  0.0899  0.1481  0.1901
 3990SOL    HW112026   2.298   4.437   4.416  1.3487  0.2549  0.3154
 3990SOL    HW212027   2.398   4.327   4.385  0.8839  0.5431 -2.4511
 3991SOL     OW12028   4.372   4.020   2.430  0.0996  0.2191  0.2036
 3991SOL    HW112029   4.354   3.986   2.342 -0.5925 -0.1676  0.4868
 3991SOL    HW212030   4.289   4.014   2.476 -0.0276  2.2090  0.3201
 3992SOL     OW12031   1.792   0.232   3.424  0.5263 -0.0636 -0.0363
 3992SOL    HW112032   1.800   0.237   3.329  1.6012  2.1054  0.1232
 3992SOL    HW212033   1.880   0.247   3.457  0.1199 -0.4873  1.3374
 3993SOL     OW12034   1.509   1.523   4.338  0.2212  0.2862  0.2378
 3993SOL    HW112035   1.484   1.611   4.311  0.0303 -0.0424 -0.6882
 3993SOL    HW212036   1.540   1.480   4.258 -0.3883 -0.7265  0.5162
 3994SOL     OW12037   4.075   0.014   2.929 -0.5397 -0.1790 -0.2376
 3994SOL    HW112038   4.073   0.069   2.850 -1.6578  0.7290  0.3823
 3994SOL    HW212039   4.002  -0.047   2.917 -2.2122  1.4256  1.0243
 3995SOL     OW12040   0.723   0.091   4.719  0.3910  0.3026 -0.3958
 3995SOL    HW112041   0.692   0.033   4.789  0.0253  3.0773  1.8896
 3995SOL    HW212042   0.643   0.123   4.678  0.5350  0.5676 -0.4666
 3996SOL     OW12043   4.266   0.131   3.928  0.1314  0.2031 -0.2006
 3996SOL    HW112044   4.342   0.081   3.899 -1.9705 -2.1085 -2.3154
 3996SOL    HW212045   4.215   0.146   3.848 -2.5317 -0.0588  1.3067
 3997SOL     OW12046   0.971   0.421   2.935 -0.0840 -0.5871 -0.2915
 3997SOL    HW112047   1.061   0.441   2.958 -0.4249  0.9195 -0.2129
 3997SOL    HW212048   0.978   0.362   2.860  0.9841 -2.8740  1.4604
 3998SOL     OW12049   1.260   0.547   0.527 -0.8642  0.2383  0.3520
 3998SOL    HW112050   1.346   0.565   0.489 -0.7897 -1.2184 -0.2327
 3998SOL    HW212051   1.229   0.633   0.557 -0.2750  1.2231 -1.6341
 3999SOL     OW12052   3.892   2.180   0.940  0.1512  0.0643  0.6215
 3999SOL    HW112053   3.964   2.117   0.938  1.7199  1.6591  2.2587
 3999SOL    HW212054   3.884   2.211   0.850  0.6172 -1.0765  0.1710
 4000SOL     OW12055   2.370   0.822   1.605  0.3079  0.7745  0.5411
 4000SOL    HW112056   2.403   0.876   1.676  2.9035 -0.0224  0.0230
 4000SOL    HW212057   2.347   0.738   1.646  0.6992  0.7058  0.6188
 4001SOL     OW12058   1.474   2.353   3.183 -0.5876 -0.4897 -0.1751
 4001SOL    HW112059   1.498   2.439   3.147  0.4375 -0.6067  0.2049
 4001SOL    HW212060   1.378   2.349   3.173 -0.5882  0.4629 -0.6976
 4002SOL     OW12061   1.866   1.437   3.633  0.4589 -0.8039  1.1857
 4002SOL    HW112062   1.838   1.528   3.636 -0.2294 -1.0145  4.2253
 4002SOL    HW212063   1.950   1.439   3.586 -0.9459  0.8651 -1.5162
 4003SOL     OW12064   3.678   2.902   0.500  0.2524  0.2827  0.0643
 4003SOL    HW112065   3.752   2.913   0.440 -1.0628  0.4496 -1.6173
 4003SOL    HW212066   3.658   2.991   0.529 -0.0030  0.3842 -0.4082
 4004SOL     OW12067   1.031   0.977   4.001  0.5756 -0.2015 -0.6596
 4004SOL    HW112068   1.054   1.053   3.948  2.1821 -1.2439 -1.5193
 4004SOL    HW212069   0.935   0.982   4.009  0.6366  1.8429 -0.7418
 4005SOL     OW12070   0.874   2.378   0.420 -0.1495  0.0140 -0.0538
 4005SOL    HW112071   0.926   2.299   0.411 -0.7606 -0.3460 -0.5292
 4005SOL    HW212072   0.930   2.439   0.468 -0.2504 -1.2497  1.8024
 4006SOL     OW12073   0.976   3.707   4.124  0.4692 -0.1435  0.0813
 4006SOL    HW112074   0.935   3.654   4.192 -1.7260  0.1201 -0.9167
 4006SOL    HW212075   1.061   3.667   4.108  0.5751 -0.8481  2.1867
 4007SOL     OW12076   0.755   2.810   1.332  0.6761  0.0629 -0.0132
 4007SOL    HW112077   0.711   2.747   1.275  3.3231 -3.1605  1.2063
 4007SOL    HW212078   0.829   2.841   1.280  0.5966  0.5622  0.1617
 4008SOL     OW12079   3.778   3.562   3.609  0.6626 -0.3451 -0.3287
 4008SOL    HW112080   3.774   3.626   3.680 -1.0756 -0.2420 -0.4803
 4008SOL    HW212081   3.870   3.562   3.582  0.8984  1.3439  0.3413
 4009SOL     OW12082   4.670   2.358   4.928 -0.0989 -0.0583  0.2713
 4009SOL    HW112083   4.746   2.393   4.973 -0.2413 -1.3120  1.5322
 4009SOL    HW212084   4.599   2.418   4.951  0.0201 -0.1889  0.9928
 4010SOL     OW12085   3.486   3.527   3.228 -0.3157  0.4089  0.3546
 4010SOL    HW112086   3.464   3.443   3.268 -1.7639  1.6184  2.2385
 4010SOL    HW212087   3.552   3.565   3.285 -0.7747  1.2062  0.3645
 4011SOL     OW12088   4.527   0.015   4.334 -0.1779  0.1901  0.5029
 4011SOL    HW112089   4.563   0.103   4.341 -1.5028  0.7798  0.1334
 4011SOL    HW212090   4.453   0.024   4.274  0.1707 -1.3370 -0.2153
 4012SOL     OW12091   1.394   3.166   3.519 -0.1724  0.3655 -0.0721
 4012SOL    HW112092   1.326   3.214   3.472  0.8880  1.0136 -0.9859
 4012SOL    HW212093   1.406   3.215   3.601 -1.2148 -0.1086  0.3807
 4013SOL     OW12094   3.507   0.381   1.912 -0.0284 -0.3732  0.0233
 4013SOL    HW112095   3.495   0.424   1.828 -0.4777 -0.4186  0.0590
 4013SOL    HW212096   3.570   0.311   1.895  0.6982  0.2848 -0.0342
 4014SOL     OW12097   3.839   0.435   3.213 -0.4269  0.0196  0.1810
 4014SOL    HW112098   3.872   0.511   3.261  1.8544 -0.2338 -0.8558
 4014SOL    HW212099   3.917   0.397   3.172 -2.0002 -0.8468 -2.1956
 4015SOL     OW12100   0.736   1.037   4.028  0.0026  0.0612 -0.0633
 4015SOL    HW112101   0.728   1.072   4.116 -1.9731 -0.6899  0.1007
 4015SOL    HW212102   0.713   1.110   3.971  0.9981  0.4638  0.0281
 4016SOL     OW12103   2.339   2.327   0.051 -0.2378  0.2693  0.5801
 4016SOL    HW112104   2.268   2.311  -0.010  0.1110 -1.8487  0.6701
 4016SOL    HW212105   2.297   2.326   0.137 -0.1715 -0.7152  0.6148
 4017SOL     OW12106   4.714   4.454   1.640 -0.2318  0.1395  0.4180
 4017SOL    HW112107   4.797   4.441   1.594 -0.6445 -0.2117 -0.2552
 4017SOL    HW212108   4.735   4.511   1.714  0.4766  0.6172 -0.1411
 4018SOL     OW12109   3.580   3.394   0.982  0.5082  0.3064 -0.1748
 4018SOL    HW112110   3.666   3.352   0.988  0.9689  1.3570  0.9370
 4018SOL    HW212111   3.596   3.476   0.936  0.6451  1.7719  2.3323
 4019SOL     OW12112   0.808   2.506   3.379 -0.1211 -0.0283 -0.5284
 4019SOL    HW112113   0.796   2.600   3.393 -0.9273 -0.3016  0.7687
 4019SOL    HW212114   0.772   2.465   3.457  2.0783 -1.3473 -0.1125
 4020SOL     OW12115   4.660   0.608   2.649  0.3913 -0.2245 -0.2740
 4020SOL    HW112116   4.754   0.594   2.640  0.3618 -1.2262  0.6571
 4020SOL    HW212117   4.635   0.660   2.573  1.4060 -1.3543 -1.4252
 4021SOL     OW12118   4.092   3.320   4.518 -0.0703 -0.6989 -0.2490
 4021SOL    HW112119   4.157   3.383   4.488 -0.2151  0.3819  1.5990
 4021SOL    HW212120   4.011   3.346   4.473  0.4053 -1.1411 -1.4037
 4022SOL     OW12121   0.850   3.656   4.969 -0.1338 -0.2320  0.1260
 4022SOL    HW112122   0.885   3.598   5.036  0.4023 -2.3138 -1.8633
 4022SOL    HW212123   0.788   3.602   4.920 -2.0650  1.8164  0.1336
 4023SOL     OW12124   0.208   0.212   3.781 -0.1640 -0.0476 -0.2491
 4023SOL    HW112125   0.148   0.153   3.734  0.2456 -0.5563 -0.1489
 4023SOL    HW212126   0.162   0.295   3.785 -0.9409 -0.4787 -0.0237
 4024SOL     OW12127   2.716   4.049   0.728 -0.8647 -0.5971  0.3119
 4024SOL    HW112128   2.789   4.018   0.781  0.2707 -1.4622 -1.6501
 4024SOL    HW212129   2.638   4.032   0.782  0.1665 -2.1680  1.3783
 4025SOL     OW12130   2.328   3.049   2.252 -0.2492  0.5129 -0.0471
 4025SOL    HW112131   2.402   2.999   2.287 -1.2292 -0.0233  1.3865
 4025SOL    HW212132   2.361   3.138   2.244  0.1692  0.6038  1.9937
 4026SOL     OW12133   2.254   4.689   3.984  0.1933 -0.0602 -0.5793
 4026SOL    HW112134   2.306   4.618   4.021  0.4731 -0.0478 -0.9473
 4026SOL    HW212135   2.185   4.646   3.933 -0.3955 -0.0838  0.2145
 4027SOL     OW12136   0.328   4.050   4.759 -0.0797 -0.1859  0.1333
 4027SOL    HW112137   0.290   4.135   4.737  0.3034  0.0294  0.2784
 4027SOL    HW212138   0.267   4.012   4.822 -0.1222  0.1004  0.2692
 4028SOL     OW12139   0.492   0.102   1.229  0.1968  0.2717 -0.5312
 4028SOL    HW112140   0.553   0.031   1.251 -0.9358 -0.3617  0.7294
 4028SOL    HW212141   0.499   0.110   1.134  1.2263 -0.7108 -0.5707
 4029SOL     OW12142   4.673   4.639   3.541 -0.0149  0.4376 -0.1308
 4029SOL    HW112143   4.704   4.549   3.541  1.0469  0.7813  0.6164
 4029SOL    HW212144   4.580   4.632   3.564 -0.4890 -0.5892 -2.1383
 4030SOL     OW12145   4.840   4.711   0.388  0.6243  0.0705  0.7761
 4030SOL    HW112146   4.783   4.654   0.336 -0.4789  2.1912 -0.4789
 4030SOL    HW212147   4.925   4.667   0.387 -0.0042 -1.2170 -0.6760
 4031SOL     OW12148   1.383   4.136   3.220  0.0630 -0.0701  0.2734
 4031SOL    HW112149   1.375   4.081   3.297  0.5717 -1.5154 -0.6571
 4031SOL    HW212150   1.331   4.214   3.240 -0.6526 -0.8678  1.6526
 4032SOL     OW12151   2.847   4.254   0.935 -0.0674 -0.8081 -0.4089
 4032SOL    HW112152   2.763   4.209   0.940  0.3844 -1.9088 -2.2212
 4032SOL    HW212153   2.893   4.228   1.015 -1.1455 -0.7445  0.2544
 4033NA      NA12154   2.534   2.455   4.927 -0.2577  0.1341  0.0244
   4.97524   4.97524   4.97524
