Protein in water t=   0.00000 step= 0
12154
    1DT5    H5T    1   1.664   2.238   0.917
    1DT5    O5'    2   1.672   2.159   0.864
    1DT5    C5'    3   1.551   2.120   0.808
    1DT5   H5'1    4   1.460   2.123   0.869
    1DT5   H5'2    5   1.563   2.020   0.767
    1DT5    C4'    6   1.528   2.208   0.682
    1DT5    H4'    7   1.438   2.168   0.635
    1DT5    O4'    8   1.492   2.349   0.710
    1DT5    C1'    9   1.563   2.437   0.630
    1DT5    H1'   10   1.514   2.450   0.534
    1DT5     N1   11   1.579   2.564   0.697
    1DT5     C6   12   1.641   2.566   0.820
    1DT5     H6   13   1.650   2.474   0.875
    1DT5     C5   14   1.666   2.688   0.884
    1DT5     C7   15   1.712   2.688   1.027
    1DT5    H71   16   1.818   2.712   1.019
    1DT5    H72   17   1.675   2.767   1.092
    1DT5    H73   18   1.712   2.588   1.069
    1DT5     C4   19   1.633   2.816   0.817
    1DT5     O4   20   1.663   2.927   0.869
    1DT5     N3   21   1.559   2.802   0.699
    1DT5     H3   22   1.524   2.887   0.655
    1DT5     C2   23   1.526   2.680   0.636
    1DT5     O2   24   1.461   2.681   0.529
    1DT5    C3'   25   1.636   2.219   0.573
    1DT5    H3'   26   1.707   2.137   0.583
    1DT5    C2'   27   1.687   2.359   0.606
    1DT5   H2'1   28   1.745   2.362   0.698
    1DT5   H2'2   29   1.755   2.407   0.536
    1DT5    O3'   30   1.591   2.231   0.438
    2DT3      P   31   1.697   2.210   0.312
    2DT3    O1P   32   1.618   2.165   0.201
    2DT3    O2P   33   1.804   2.120   0.356
    2DT3    O5'   34   1.760   2.357   0.289
    2DT3    C5'   35   1.695   2.456   0.218
    2DT3   H5'1   36   1.591   2.463   0.251
    2DT3   H5'2   37   1.693   2.436   0.111
    2DT3    C4'   38   1.759   2.593   0.248
    2DT3    H4'   39   1.716   2.671   0.186
    2DT3    O4'   40   1.774   2.626   0.383
    2DT3    C1'   41   1.886   2.717   0.397
    2DT3    H1'   42   1.866   2.808   0.341
    2DT3     N1   43   1.922   2.727   0.544
    2DT3     C6   44   1.961   2.622   0.622
    2DT3     H6   45   1.950   2.524   0.580
    2DT3     C5   46   2.022   2.646   0.745
    2DT3     C7   47   2.061   2.527   0.835
    2DT3    H71   48   2.048   2.428   0.789
    2DT3    H72   49   2.164   2.549   0.861
    2DT3    H73   50   2.008   2.526   0.930
    2DT3     C4   51   2.038   2.783   0.793
    2DT3     O4   52   2.114   2.824   0.883
    2DT3     N3   53   1.988   2.884   0.712
    2DT3     H3   54   2.018   2.979   0.730
    2DT3     C2   55   1.929   2.861   0.590
    2DT3     O2   56   1.899   2.958   0.517
    2DT3    C3'   57   1.907   2.591   0.198
    2DT3    H3'   58   1.929   2.489   0.166
    2DT3    C2'   59   1.991   2.642   0.311
    2DT3   H2'1   60   2.035   2.553   0.356
    2DT3   H2'2   61   2.073   2.705   0.277
    2DT3    O3'   62   1.921   2.674   0.080
    2DT3    H3T   63   1.907   2.617   0.005
    3SOL     OW   64   0.233   2.898   0.121
    3SOL    HW1   65   0.169   2.947   0.173
    3SOL    HW2   66   0.218   2.926   0.031
    4SOL     OW   67   3.112   3.015   3.704
    4SOL    HW1   68   3.185   3.077   3.712
    4SOL    HW2   69   3.036   3.064   3.734
    5SOL     OW   70   2.763   0.852   2.330
    5SOL    HW1   71   2.779   0.761   2.307
    5SOL    HW2   72   2.701   0.848   2.402
    6SOL     OW   73   1.953   1.782   2.950
    6SOL    HW1   74   1.910   1.812   2.870
    6SOL    HW2   75   1.926   1.844   3.017
    7SOL     OW   76   4.529   3.192   4.602
    7SOL    HW1   77   4.437   3.200   4.626
    7SOL    HW2   78   4.567   3.278   4.622
    8SOL     OW   79   2.133   4.544   2.054
    8SOL    HW1   80   2.112   4.611   1.989
    8SOL    HW2   81   2.227   4.556   2.070
    9SOL     OW   82   4.287   2.582   1.773
    9SOL    HW1   83   4.231   2.625   1.837
    9SOL    HW2   84   4.333   2.654   1.729
   10SOL     OW   85   3.382   3.105   3.789
   10SOL    HW1   86   3.346   3.181   3.833
   10SOL    HW2   87   3.461   3.137   3.745
   11SOL     OW   88   0.956   4.887   2.688
   11SOL    HW1   89   0.861   4.880   2.684
   11SOL    HW2   90   0.980   4.841   2.769
   12SOL     OW   91   4.709   3.804   1.195
   12SOL    HW1   92   4.765   3.767   1.127
   12SOL    HW2   93   4.750   3.777   1.277
   13SOL     OW   94   1.180   1.070   3.034
   13SOL    HW1   95   1.266   1.028   3.034
   13SOL    HW2   96   1.123   1.009   2.987
   14SOL     OW   97   4.685   0.465   2.009
   14SOL    HW1   98   4.774   0.494   1.992
   14SOL    HW2   99   4.639   0.545   2.037
   15SOL     OW  100   2.479   0.317   3.819
   15SOL    HW1  101   2.529   0.387   3.862
   15SOL    HW2  102   2.506   0.322   3.727
   16SOL     OW  103   0.167   0.003   3.461
   16SOL    HW1  104   0.110   0.074   3.432
   16SOL    HW2  105   0.108   4.906   3.503
   17SOL     OW  106   1.638   3.503   4.584
   17SOL    HW1  107   1.678   3.433   4.532
   17SOL    HW2  108   1.629   3.576   4.522
   18SOL     OW  109   2.988   1.340   0.357
   18SOL    HW1  110   2.973   1.264   0.413
   18SOL    HW2  111   2.994   1.413   0.419
   19SOL     OW  112   2.477   3.155   0.108
   19SOL    HW1  113   2.545   3.211   0.146
   19SOL    HW2  114   2.464   3.189   0.020
   20SOL     OW  115   2.844   4.014   3.105
   20SOL    HW1  116   2.765   4.066   3.093
   20SOL    HW2  117   2.818   3.925   3.080
   21SOL     OW  118   0.128   3.843   0.868
   21SOL    HW1  119   0.139   3.777   0.799
   21SOL    HW2  120   0.099   3.922   0.822
   22SOL     OW  121   0.952   2.775   3.526
   22SOL    HW1  122   1.041   2.765   3.493
   22SOL    HW2  123   0.963   2.809   3.615
   23SOL     OW  124   3.758   2.554   0.968
   23SOL    HW1  125   3.815   2.546   0.891
   23SOL    HW2  126   3.672   2.527   0.937
   24SOL     OW  127   0.578   2.635   2.154
   24SOL    HW1  128   0.545   2.708   2.206
   24SOL    HW2  129   0.673   2.643   2.159
   25SOL     OW  130   0.969   3.557   1.250
   25SOL    HW1  131   0.984   3.643   1.209
   25SOL    HW2  132   0.897   3.572   1.310
   26SOL     OW  133   2.008   2.364   2.714
   26SOL    HW1  134   1.948   2.431   2.681
   26SOL    HW2  135   2.043   2.400   2.795
   27SOL     OW  136   4.443   3.556   0.500
   27SOL    HW1  137   4.393   3.628   0.537
   27SOL    HW2  138   4.524   3.555   0.552
   28SOL     OW  139   4.117   4.818   2.048
   28SOL    HW1  140   4.053   4.817   1.976
   28SOL    HW2  141   4.135   4.726   2.065
   29SOL     OW  142   3.089   4.175   1.847
   29SOL    HW1  143   3.137   4.164   1.929
   29SOL    HW2  144   3.147   4.138   1.780
   30SOL     OW  145   3.624   4.519   0.517
   30SOL    HW1  146   3.691   4.537   0.451
   30SOL    HW2  147   3.670   4.529   0.601
   31SOL     OW  148   0.018   0.958   3.707
   31SOL    HW1  149   4.931   0.994   3.637
   31SOL    HW2  150   4.948   0.996   3.787
   32SOL     OW  151   4.778   3.026   0.934
   32SOL    HW1  152   4.705   3.086   0.920
   32SOL    HW2  153   4.797   3.030   1.028
   33SOL     OW  154   4.080   2.425   4.475
   33SOL    HW1  155   4.072   2.332   4.455
   33SOL    HW2  156   4.157   2.454   4.426
   34SOL     OW  157   3.580   4.783   3.442
   34SOL    HW1  158   3.544   4.702   3.479
   34SOL    HW2  159   3.672   4.781   3.466
   35SOL     OW  160   1.126   2.584   3.668
   35SOL    HW1  161   1.042   2.541   3.653
   35SOL    HW2  162   1.123   2.611   3.760
   36SOL     OW  163   1.276   0.931   3.787
   36SOL    HW1  164   1.328   0.868   3.838
   36SOL    HW2  165   1.314   1.016   3.808
   37SOL     OW  166   3.587   1.547   2.351
   37SOL    HW1  167   3.529   1.477   2.321
   37SOL    HW2  168   3.663   1.501   2.386
   38SOL     OW  169   1.254   1.572   2.849
   38SOL    HW1  170   1.268   1.489   2.803
   38SOL    HW2  171   1.246   1.547   2.941
   39SOL     OW  172   1.168   1.131   4.785
   39SOL    HW1  173   1.261   1.153   4.787
   39SOL    HW2  174   1.127   1.204   4.738
   40SOL     OW  175   0.735   2.213   2.847
   40SOL    HW1  176   0.748   2.222   2.942
   40SOL    HW2  177   0.749   2.301   2.813
   41SOL     OW  178   4.130   3.814   0.807
   41SOL    HW1  179   4.048   3.864   0.803
   41SOL    HW2  180   4.149   3.808   0.901
   42SOL     OW  181   2.449   2.261   1.976
   42SOL    HW1  182   2.490   2.266   2.063
   42SOL    HW2  183   2.498   2.323   1.923
   43SOL     OW  184   0.143   0.743   0.667
   43SOL    HW1  185   0.127   0.649   0.678
   43SOL    HW2  186   0.091   0.784   0.736
   44SOL     OW  187   0.654   1.230   1.645
   44SOL    HW1  188   0.747   1.248   1.661
   44SOL    HW2  189   0.609   1.275   1.717
   45SOL     OW  190   1.514   3.081   3.150
   45SOL    HW1  191   1.439   3.119   3.104
   45SOL    HW2  192   1.564   3.037   3.081
   46SOL     OW  193   1.019   4.441   0.816
   46SOL    HW1  194   0.973   4.439   0.900
   46SOL    HW2  195   0.964   4.496   0.759
   47SOL     OW  196   3.643   0.186   2.864
   47SOL    HW1  197   3.680   0.246   2.798
   47SOL    HW2  198   3.719   0.149   2.907
   48SOL     OW  199   1.572   0.289   1.532
   48SOL    HW1  200   1.515   0.349   1.581
   48SOL    HW2  201   1.553   0.203   1.570
   49SOL     OW  202   0.896   1.358   3.471
   49SOL    HW1  203   0.835   1.306   3.419
   49SOL    HW2  204   0.941   1.413   3.408
   50SOL     OW  205   1.037   0.581   1.171
   50SOL    HW1  206   1.023   0.530   1.251
   50SOL    HW2  207   1.005   0.668   1.191
   51SOL     OW  208   4.800   4.799   1.573
   51SOL    HW1  209   4.797   4.782   1.667
   51SOL    HW2  210   4.884   4.842   1.558
   52SOL     OW  211   2.271   2.540   3.482
   52SOL    HW1  212   2.190   2.541   3.431
   52SOL    HW2  213   2.327   2.606   3.442
   53SOL     OW  214   2.920   4.682   2.449
   53SOL    HW1  215   2.996   4.671   2.392
   53SOL    HW2  216   2.903   4.776   2.447
   54SOL     OW  217   2.058   4.077   2.474
   54SOL    HW1  218   2.136   4.088   2.529
   54SOL    HW2  219   2.009   4.007   2.517
   55SOL     OW  220   2.325   2.768   4.398
   55SOL    HW1  221   2.298   2.810   4.480
   55SOL    HW2  222   2.314   2.836   4.331
   56SOL     OW  223   4.639   4.613   4.838
   56SOL    HW1  224   4.727   4.652   4.844
   56SOL    HW2  225   4.591   4.672   4.780
   57SOL     OW  226   1.865   0.170   0.260
   57SOL    HW1  227   1.869   0.140   0.169
   57SOL    HW2  228   1.788   0.127   0.297
   58SOL     OW  229   4.450   2.105   3.378
   58SOL    HW1  230   4.381   2.053   3.421
   58SOL    HW2  231   4.405   2.185   3.350
   59SOL     OW  232   3.788   3.361   1.000
   59SOL    HW1  233   3.846   3.373   0.924
   59SOL    HW2  234   3.812   3.275   1.035
   60SOL     OW  235   2.960   2.279   2.966
   60SOL    HW1  236   2.881   2.311   2.921
   60SOL    HW2  237   2.958   2.322   3.051
   61SOL     OW  238   3.825   4.605   1.292
   61SOL    HW1  239   3.795   4.669   1.357
   61SOL    HW2  240   3.766   4.616   1.218
   62SOL     OW  241   4.664   2.771   3.242
   62SOL    HW1  242   4.636   2.804   3.157
   62SOL    HW2  243   4.654   2.846   3.301
   63SOL     OW  244   1.321   1.230   0.102
   63SOL    HW1  245   1.294   1.138   0.101
   63SOL    HW2  246   1.310   1.258   0.193
   64SOL     OW  247   1.767   2.289   2.004
   64SOL    HW1  248   1.697   2.263   2.064
   64SOL    HW2  249   1.745   2.380   1.981
   65SOL     OW  250   2.060   2.768   4.787
   65SOL    HW1  251   1.984   2.807   4.832
   65SOL    HW2  252   2.049   2.673   4.800
   66SOL     OW  253   2.587   1.330   3.575
   66SOL    HW1  254   2.542   1.406   3.611
   66SOL    HW2  255   2.556   1.257   3.629
   67SOL     OW  256   0.333   2.059   1.105
   67SOL    HW1  257   0.265   1.993   1.121
   67SOL    HW2  258   0.368   2.078   1.192
   68SOL     OW  259   0.316   4.854   4.945
   68SOL    HW1  260   0.387   4.794   0.001
   68SOL    HW2  261   0.240   4.798   4.930
   69SOL     OW  262   3.742   4.896   1.314
   69SOL    HW1  263   3.709   4.919   1.401
   69SOL    HW2  264   3.667   4.858   1.269
   70SOL     OW  265   2.801   4.685   3.058
   70SOL    HW1  266   2.857   4.760   3.038
   70SOL    HW2  267   2.716   4.709   3.021
   71SOL     OW  268   3.533   0.088   1.111
   71SOL    HW1  269   3.486   0.013   1.147
   71SOL    HW2  270   3.464   0.148   1.084
   72SOL     OW  271   0.332   2.182   4.412
   72SOL    HW1  272   0.285   2.105   4.444
   72SOL    HW2  273   0.278   2.216   4.341
   73SOL     OW  274   1.397   2.801   4.355
   73SOL    HW1  275   1.392   2.757   4.271
   73SOL    HW2  276   1.353   2.741   4.416
   74SOL     OW  277   2.370   2.765   1.135
   74SOL    HW1  278   2.286   2.736   1.170
   74SOL    HW2  279   2.364   2.750   1.041
   75SOL     OW  280   0.232   1.235   2.025
   75SOL    HW1  281   0.150   1.187   2.029
   75SOL    HW2  282   0.240   1.277   2.110
   76SOL     OW  283   2.004   2.070   2.123
   76SOL    HW1  284   1.927   2.061   2.068
   76SOL    HW2  285   2.055   2.141   2.082
   77SOL     OW  286   3.520   4.510   2.390
   77SOL    HW1  287   3.506   4.553   2.475
   77SOL    HW2  288   3.534   4.583   2.329
   78SOL     OW  289   1.787   2.207   2.460
   78SOL    HW1  290   1.819   2.253   2.383
   78SOL    HW2  291   1.693   2.197   2.446
   79SOL     OW  292   2.658   1.036   3.349
   79SOL    HW1  293   2.581   1.077   3.386
   79SOL    HW2  294   2.625   0.961   3.300
   80SOL     OW  295   4.633   0.303   1.212
   80SOL    HW1  296   4.551   0.295   1.261
   80SOL    HW2  297   4.698   0.326   1.277
   81SOL     OW  298   1.403   4.002   3.343
   81SOL    HW1  299   1.335   4.064   3.317
   81SOL    HW2  300   1.459   4.052   3.403
   82SOL     OW  301   1.172   0.483   0.950
   82SOL    HW1  302   1.149   0.528   0.869
   82SOL    HW2  303   1.124   0.531   1.018
   83SOL     OW  304   3.601   1.541   1.319
   83SOL    HW1  305   3.635   1.630   1.311
   83SOL    HW2  306   3.521   1.551   1.370
   84SOL     OW  307   0.494   0.290   3.711
   84SOL    HW1  308   0.521   0.262   3.623
   84SOL    HW2  309   0.573   0.325   3.750
   85SOL     OW  310   4.512   1.085   2.763
   85SOL    HW1  311   4.520   1.122   2.851
   85SOL    HW2  312   4.595   1.041   2.747
   86SOL     OW  313   4.694   0.685   4.602
   86SOL    HW1  314   4.668   0.603   4.642
   86SOL    HW2  315   4.789   0.679   4.594
   87SOL     OW  316   2.496   3.147   1.709
   87SOL    HW1  317   2.458   3.192   1.633
   87SOL    HW2  318   2.431   3.157   1.778
   88SOL     OW  319   3.082   3.484   0.385
   88SOL    HW1  320   3.162   3.467   0.433
   88SOL    HW2  321   3.013   3.439   0.434
   89SOL     OW  322   3.677   2.624   3.952
   89SOL    HW1  323   3.609   2.691   3.962
   89SOL    HW2  324   3.712   2.638   3.865
   90SOL     OW  325   4.040   0.965   2.873
   90SOL    HW1  326   4.134   0.954   2.861
   90SOL    HW2  327   4.018   0.910   2.948
   91SOL     OW  328   4.417   4.079   2.347
   91SOL    HW1  329   4.356   4.009   2.371
   91SOL    HW2  330   4.444   4.057   2.258
   92SOL     OW  331   2.096   4.672   2.737
   92SOL    HW1  332   2.049   4.727   2.674
   92SOL    HW2  333   2.152   4.617   2.683
   93SOL     OW  334   3.122   0.810   3.548
   93SOL    HW1  335   3.184   0.882   3.564
   93SOL    HW2  336   3.042   0.854   3.518
   94SOL     OW  337   4.828   0.148   0.780
   94SOL    HW1  338   4.922   0.166   0.777
   94SOL    HW2  339   4.812   0.118   0.869
   95SOL     OW  340   1.626   1.218   1.989
   95SOL    HW1  341   1.643   1.310   2.006
   95SOL    HW2  342   1.562   1.193   2.056
   96SOL     OW  343   2.815   2.786   2.153
   96SOL    HW1  344   2.729   2.744   2.162
   96SOL    HW2  345   2.796   2.880   2.154
   97SOL     OW  346   1.531   2.643   1.383
   97SOL    HW1  347   1.544   2.724   1.333
   97SOL    HW2  348   1.497   2.672   1.467
   98SOL     OW  349   0.161   4.477   1.648
   98SOL    HW1  350   0.131   4.410   1.709
   98SOL    HW2  351   0.106   4.465   1.570
   99SOL     OW  352   4.313   2.220   4.226
   99SOL    HW1  353   4.325   2.139   4.176
   99SOL    HW2  354   4.334   2.290   4.164
  100SOL     OW  355   3.954   2.837   1.730
  100SOL    HW1  356   3.860   2.826   1.717
  100SOL    HW2  357   3.994   2.792   1.655
  101SOL     OW  358   4.063   1.776   0.652
  101SOL    HW1  359   4.069   1.872   0.647
  101SOL    HW2  360   3.971   1.757   0.635
  102SOL     OW  361   0.495   4.943   2.201
  102SOL    HW1  362   0.577   4.895   2.212
  102SOL    HW2  363   0.444   4.890   2.139
  103SOL     OW  364   0.816   2.268   0.808
  103SOL    HW1  365   0.793   2.287   0.717
  103SOL    HW2  366   0.731   2.266   0.854
  104SOL     OW  367   0.079   4.185   4.683
  104SOL    HW1  368   4.952   4.175   4.666
  104SOL    HW2  369   0.117   4.205   4.598
  105SOL     OW  370   2.569   1.897   4.439
  105SOL    HW1  371   2.630   1.825   4.455
  105SOL    HW2  372   2.570   1.908   4.344
  106SOL     OW  373   2.945   3.030   3.080
  106SOL    HW1  374   2.861   3.001   3.114
  106SOL    HW2  375   2.942   3.011   2.987
  107SOL     OW  376   4.870   4.309   2.130
  107SOL    HW1  377   4.798   4.367   2.154
  107SOL    HW2  378   4.856   4.230   2.182
  108SOL     OW  379   0.822   0.255   4.466
  108SOL    HW1  380   0.883   0.329   4.476
  108SOL    HW2  381   0.849   0.212   4.386
  109SOL     OW  382   0.205   2.310   1.004
  109SOL    HW1  383   0.157   2.286   0.925
  109SOL    HW2  384   0.258   2.232   1.024
  110SOL     OW  385   4.808   1.581   3.895
  110SOL    HW1  386   4.724   1.539   3.877
  110SOL    HW2  387   4.787   1.650   3.957
  111SOL     OW  388   3.086   4.913   4.593
  111SOL    HW1  389   3.060   4.871   4.510
  111SOL    HW2  390   3.173   4.948   4.575
  112SOL     OW  391   3.443   4.295   0.956
  112SOL    HW1  392   3.401   4.355   0.895
  112SOL    HW2  393   3.523   4.268   0.912
  113SOL     OW  394   2.596   1.532   2.967
  113SOL    HW1  395   2.580   1.626   2.954
  113SOL    HW2  396   2.617   1.523   3.059
  114SOL     OW  397   2.496   3.679   1.159
  114SOL    HW1  398   2.489   3.593   1.118
  114SOL    HW2  399   2.567   3.723   1.112
  115SOL     OW  400   2.403   4.708   4.935
  115SOL    HW1  401   2.327   4.705   4.877
  115SOL    HW2  402   2.456   4.781   4.903
  116SOL     OW  403   0.725   2.448   2.680
  116SOL    HW1  404   0.682   2.514   2.734
  116SOL    HW2  405   0.657   2.421   2.618
  117SOL     OW  406   4.516   2.439   2.029
  117SOL    HW1  407   4.507   2.500   1.956
  117SOL    HW2  408   4.432   2.444   2.075
  118SOL     OW  409   3.933   0.142   0.543
  118SOL    HW1  410   3.852   0.096   0.521
  118SOL    HW2  411   3.933   0.219   0.486
  119SOL     OW  412   2.349   0.683   0.043
  119SOL    HW1  413   2.305   0.609   0.085
  119SOL    HW2  414   2.442   0.672   0.065
  120SOL     OW  415   3.396   0.885   0.129
  120SOL    HW1  416   3.460   0.938   0.081
  120SOL    HW2  417   3.340   0.950   0.173
  121SOL     OW  418   1.307   2.115   4.273
  121SOL    HW1  419   1.258   2.196   4.257
  121SOL    HW2  420   1.308   2.106   4.368
  122SOL     OW  421   3.638   4.560   1.013
  122SOL    HW1  422   3.617   4.632   0.954
  122SOL    HW2  423   3.568   4.561   1.078
  123SOL     OW  424   4.872   0.396   2.371
  123SOL    HW1  425   4.809   0.338   2.414
  123SOL    HW2  426   4.826   0.480   2.365
  124SOL     OW  427   2.939   0.791   2.926
  124SOL    HW1  428   2.978   0.704   2.941
  124SOL    HW2  429   2.911   0.820   3.013
  125SOL     OW  430   3.068   0.269   2.277
  125SOL    HW1  431   2.987   0.220   2.268
  125SOL    HW2  432   3.049   0.336   2.342
  126SOL     OW  433   3.257   4.792   1.376
  126SOL    HW1  434   3.182   4.789   1.435
  126SOL    HW2  435   3.330   4.759   1.428
  127SOL     OW  436   0.570   3.560   2.039
  127SOL    HW1  437   0.555   3.585   1.948
  127SOL    HW2  438   0.619   3.633   2.077
  128SOL     OW  439   0.862   3.278   1.056
  128SOL    HW1  440   0.957   3.272   1.067
  128SOL    HW2  441   0.838   3.360   1.099
  129SOL     OW  442   3.591   4.913   4.341
  129SOL    HW1  443   3.654   4.896   4.412
  129SOL    HW2  444   3.646   4.944   4.269
  130SOL     OW  445   1.522   3.930   1.848
  130SOL    HW1  446   1.509   3.840   1.878
  130SOL    HW2  447   1.446   3.948   1.792
  131SOL     OW  448   2.038   2.066   1.451
  131SOL    HW1  449   2.130   2.089   1.447
  131SOL    HW2  450   1.994   2.146   1.480
  132SOL     OW  451   3.652   0.641   4.126
  132SOL    HW1  452   3.696   0.726   4.129
  132SOL    HW2  453   3.724   0.577   4.126
  133SOL     OW  454   1.587   1.975   3.602
  133SOL    HW1  455   1.597   2.024   3.684
  133SOL    HW2  456   1.592   1.883   3.627
  134SOL     OW  457   2.732   4.478   2.480
  134SOL    HW1  458   2.783   4.550   2.441
  134SOL    HW2  459   2.764   4.400   2.435
  135SOL     OW  460   0.330   0.332   2.591
  135SOL    HW1  461   0.235   0.329   2.599
  135SOL    HW2  462   0.363   0.304   2.677
  136SOL     OW  463   4.481   1.652   0.607
  136SOL    HW1  464   4.570   1.627   0.632
  136SOL    HW2  465   4.438   1.676   0.689
  137SOL     OW  466   4.914   0.632   1.997
  137SOL    HW1  467   4.935   0.618   1.905
  137SOL    HW2  468   4.882   0.723   2.001
  138SOL     OW  469   3.382   1.242   0.336
  138SOL    HW1  470   3.428   1.180   0.279
  138SOL    HW2  471   3.409   1.217   0.425
  139SOL     OW  472   1.715   4.670   1.624
  139SOL    HW1  473   1.796   4.621   1.637
  139SOL    HW2  474   1.661   4.649   1.700
  140SOL     OW  475   0.832   4.291   3.486
  140SOL    HW1  476   0.791   4.372   3.515
  140SOL    HW2  477   0.770   4.253   3.424
  141SOL     OW  478   4.074   2.425   3.618
  141SOL    HW1  479   4.164   2.429   3.584
  141SOL    HW2  480   4.019   2.452   3.545
  142SOL     OW  481   3.497   1.539   3.875
  142SOL    HW1  482   3.411   1.573   3.849
  142SOL    HW2  483   3.550   1.616   3.893
  143SOL     OW  484   4.397   3.776   0.668
  143SOL    HW1  485   4.436   3.860   0.693
  143SOL    HW2  486   4.310   3.778   0.706
  144SOL     OW  487   3.341   3.700   2.365
  144SOL    HW1  488   3.292   3.659   2.293
  144SOL    HW2  489   3.432   3.693   2.338
  145SOL     OW  490   2.472   0.166   0.637
  145SOL    HW1  491   2.447   0.150   0.728
  145SOL    HW2  492   2.467   0.080   0.596
  146SOL     OW  493   4.428   4.900   4.438
  146SOL    HW1  494   4.389   4.813   4.448
  146SOL    HW2  495   4.415   4.921   4.346
  147SOL     OW  496   4.325   0.179   3.634
  147SOL    HW1  497   4.295   0.238   3.703
  147SOL    HW2  498   4.415   0.207   3.616
  148SOL     OW  499   3.331   0.419   2.415
  148SOL    HW1  500   3.277   0.355   2.461
  148SOL    HW2  501   3.354   0.483   2.483
  149SOL     OW  502   1.154   3.501   3.421
  149SOL    HW1  503   1.210   3.461   3.489
  149SOL    HW2  504   1.179   3.456   3.341
  150SOL     OW  505   2.753   4.376   3.126
  150SOL    HW1  506   2.726   4.467   3.138
  150SOL    HW2  507   2.796   4.375   3.040
  151SOL     OW  508   1.418   4.188   1.272
  151SOL    HW1  509   1.334   4.227   1.248
  151SOL    HW2  510   1.442   4.134   1.197
  152SOL     OW  511   1.248   3.268   0.289
  152SOL    HW1  512   1.230   3.238   0.378
  152SOL    HW2  513   1.228   3.362   0.291
  153SOL     OW  514   4.870   4.582   4.515
  153SOL    HW1  515   4.797   4.623   4.470
  153SOL    HW2  516   4.939   4.576   4.449
  154SOL     OW  517   1.856   0.489   3.897
  154SOL    HW1  518   1.951   0.492   3.886
  154SOL    HW2  519   1.827   0.419   3.839
  155SOL     OW  520   3.476   1.223   3.519
  155SOL    HW1  521   3.436   1.194   3.437
  155SOL    HW2  522   3.491   1.316   3.507
  156SOL     OW  523   1.799   2.381   3.144
  156SOL    HW1  524   1.756   2.354   3.063
  156SOL    HW2  525   1.763   2.469   3.161
  157SOL     OW  526   4.926   2.192   3.602
  157SOL    HW1  527   4.961   2.254   3.538
  157SOL    HW2  528   4.836   2.175   3.573
  158SOL     OW  529   1.604   2.503   2.601
  158SOL    HW1  530   1.543   2.514   2.528
  158SOL    HW2  531   1.551   2.516   2.679
  159SOL     OW  532   3.312   1.335   3.810
  159SOL    HW1  533   3.387   1.395   3.815
  159SOL    HW2  534   3.294   1.326   3.717
  160SOL     OW  535   0.048   4.779   3.608
  160SOL    HW1  536   4.943   4.718   3.629
  160SOL    HW2  537   0.127   4.736   3.640
  161SOL     OW  538   2.823   3.995   3.980
  161SOL    HW1  539   2.879   3.929   3.940
  161SOL    HW2  540   2.825   4.069   3.919
  162SOL     OW  541   1.465   4.966   4.912
  162SOL    HW1  542   1.444   0.085   4.873
  162SOL    HW2  543   1.383   4.939   4.954
  163SOL     OW  544   0.813   0.144   2.288
  163SOL    HW1  545   0.718   0.140   2.280
  163SOL    HW2  546   0.845   0.142   2.198
  164SOL     OW  547   4.955   0.192   3.178
  164SOL    HW1  548   4.950   0.128   3.107
  164SOL    HW2  549   4.909   0.151   3.251
  165SOL     OW  550   3.397   3.367   0.868
  165SOL    HW1  551   3.451   3.425   0.922
  165SOL    HW2  552   3.355   3.426   0.805
  166SOL     OW  553   1.067   2.680   1.671
  166SOL    HW1  554   1.042   2.741   1.602
  166SOL    HW2  555   1.051   2.728   1.753
  167SOL     OW  556   3.323   0.915   4.774
  167SOL    HW1  557   3.419   0.914   4.767
  167SOL    HW2  558   3.297   0.998   4.734
  168SOL     OW  559   0.519   4.960   4.668
  168SOL    HW1  560   0.542   4.951   4.760
  168SOL    HW2  561   0.595   4.923   4.621
  169SOL     OW  562   1.043   2.650   4.632
  169SOL    HW1  563   1.051   2.648   4.537
  169SOL    HW2  564   1.103   2.582   4.663
  170SOL     OW  565   2.646   3.149   0.528
  170SOL    HW1  566   2.659   3.145   0.623
  170SOL    HW2  567   2.557   3.115   0.515
  171SOL     OW  568   3.977   4.495   3.025
  171SOL    HW1  569   3.925   4.469   3.101
  171SOL    HW2  570   3.980   4.416   2.970
  172SOL     OW  571   4.863   2.191   4.443
  172SOL    HW1  572   4.860   2.122   4.509
  172SOL    HW2  573   4.771   2.206   4.420
  173SOL     OW  574   0.161   3.758   2.707
  173SOL    HW1  575   0.200   3.732   2.624
  173SOL    HW2  576   0.215   3.832   2.737
  174SOL     OW  577   3.314   2.984   0.743
  174SOL    HW1  578   3.329   3.015   0.832
  174SOL    HW2  579   3.238   2.925   0.751
  175SOL     OW  580   2.805   1.593   2.576
  175SOL    HW1  581   2.724   1.631   2.609
  175SOL    HW2  582   2.836   1.537   2.647
  176SOL     OW  583   4.470   0.316   1.476
  176SOL    HW1  584   4.380   0.289   1.491
  176SOL    HW2  585   4.522   0.237   1.490
  177SOL     OW  586   0.401   0.178   3.109
  177SOL    HW1  587   0.440   0.118   3.172
  177SOL    HW2  588   0.358   0.121   3.045
  178SOL     OW  589   4.183   3.881   4.791
  178SOL    HW1  590   4.277   3.885   4.807
  178SOL    HW2  591   4.154   3.972   4.788
  179SOL     OW  592   4.946   2.525   0.418
  179SOL    HW1  593   4.909   2.458   0.475
  179SOL    HW2  594   0.052   2.562   0.468
  180SOL     OW  595   1.590   1.160   2.852
  180SOL    HW1  596   1.677   1.199   2.843
  180SOL    HW2  597   1.554   1.160   2.763
  181SOL     OW  598   3.229   3.335   2.700
  181SOL    HW1  599   3.238   3.357   2.793
  181SOL    HW2  600   3.285   3.399   2.655
  182SOL     OW  601   1.388   3.979   4.437
  182SOL    HW1  602   1.299   4.009   4.453
  182SOL    HW2  603   1.379   3.887   4.415
  183SOL     OW  604   1.341   2.385   1.896
  183SOL    HW1  605   1.338   2.472   1.935
  183SOL    HW2  606   1.325   2.325   1.969
  184SOL     OW  607   0.220   1.488   0.775
  184SOL    HW1  608   0.149   1.552   0.763
  184SOL    HW2  609   0.213   1.431   0.699
  185SOL     OW  610   0.622   4.407   0.996
  185SOL    HW1  611   0.533   4.426   1.025
  185SOL    HW2  612   0.619   4.421   0.901
  186SOL     OW  613   4.020   2.162   3.896
  186SOL    HW1  614   3.991   2.244   3.934
  186SOL    HW2  615   4.108   2.148   3.933
  187SOL     OW  616   2.328   2.227   4.382
  187SOL    HW1  617   2.302   2.319   4.386
  187SOL    HW2  618   2.248   2.180   4.360
  188SOL     OW  619   2.869   1.649   4.489
  188SOL    HW1  620   2.922   1.728   4.495
  188SOL    HW2  621   2.848   1.641   4.396
  189SOL     OW  622   0.549   3.143   1.722
  189SOL    HW1  623   0.626   3.089   1.705
  189SOL    HW2  624   0.476   3.092   1.685
  190SOL     OW  625   3.110   3.776   1.729
  190SOL    HW1  626   3.168   3.715   1.683
  190SOL    HW2  627   3.156   3.796   1.810
  191SOL     OW  628   3.307   3.872   0.740
  191SOL    HW1  629   3.292   3.837   0.652
  191SOL    HW2  630   3.254   3.951   0.743
  192SOL     OW  631   3.129   2.707   1.102
  192SOL    HW1  632   3.220   2.709   1.072
  192SOL    HW2  633   3.130   2.754   1.185
  193SOL     OW  634   3.871   0.479   0.869
  193SOL    HW1  635   3.855   0.390   0.837
  193SOL    HW2  636   3.963   0.479   0.896
  194SOL     OW  637   2.945   4.465   0.378
  194SOL    HW1  638   2.976   4.532   0.440
  194SOL    HW2  639   3.016   4.401   0.374
  195SOL     OW  640   2.495   2.914   2.611
  195SOL    HW1  641   2.529   3.002   2.628
  195SOL    HW2  642   2.471   2.880   2.698
  196SOL     OW  643   0.052   4.520   4.288
  196SOL    HW1  644   0.011   4.537   4.203
  196SOL    HW2  645   0.122   4.585   4.294
  197SOL     OW  646   0.332   0.940   4.460
  197SOL    HW1  647   0.308   0.848   4.465
  197SOL    HW2  648   0.392   0.954   4.533
  198SOL     OW  649   1.535   3.645   0.654
  198SOL    HW1  650   1.465   3.674   0.596
  198SOL    HW2  651   1.529   3.703   0.730
  199SOL     OW  652   0.945   4.210   3.079
  199SOL    HW1  653   1.029   4.213   3.124
  199SOL    HW2  654   0.951   4.133   3.022
  200SOL     OW  655   2.835   1.340   4.525
  200SOL    HW1  656   2.780   1.417   4.542
  200SOL    HW2  657   2.891   1.333   4.602
  201SOL     OW  658   4.083   2.518   0.985
  201SOL    HW1  659   4.176   2.509   0.967
  201SOL    HW2  660   4.051   2.428   0.994
  202SOL     OW  661   1.182   2.914   4.641
  202SOL    HW1  662   1.151   2.826   4.622
  202SOL    HW2  663   1.165   2.926   4.735
  203SOL     OW  664   4.601   0.989   2.296
  203SOL    HW1  665   4.540   1.039   2.350
  203SOL    HW2  666   4.609   1.041   2.216
  204SOL     OW  667   3.025   0.027   3.414
  204SOL    HW1  668   3.014   0.119   3.389
  204SOL    HW2  669   3.109   0.024   3.460
  205SOL     OW  670   4.042   3.606   3.631
  205SOL    HW1  671   4.049   3.691   3.674
  205SOL    HW2  672   3.979   3.557   3.683
  206SOL     OW  673   1.459   1.253   4.833
  206SOL    HW1  674   1.504   1.169   4.843
  206SOL    HW2  675   1.415   1.266   4.917
  207SOL     OW  676   0.362   0.898   2.484
  207SOL    HW1  677   0.285   0.946   2.516
  207SOL    HW2  678   0.346   0.808   2.511
  208SOL     OW  679   3.889   2.620   4.114
  208SOL    HW1  680   3.816   2.613   4.053
  208SOL    HW2  681   3.852   2.600   4.199
  209SOL     OW  682   3.675   4.155   1.276
  209SOL    HW1  683   3.691   4.187   1.365
  209SOL    HW2  684   3.704   4.227   1.219
  210SOL     OW  685   3.456   0.827   4.287
  210SOL    HW1  686   3.473   0.804   4.195
  210SOL    HW2  687   3.416   0.749   4.324
  211SOL     OW  688   0.319   0.505   3.655
  211SOL    HW1  689   0.386   0.560   3.616
  211SOL    HW2  690   0.365   0.425   3.682
  212SOL     OW  691   3.960   3.376   3.817
  212SOL    HW1  692   3.992   3.297   3.772
  212SOL    HW2  693   3.869   3.385   3.788
  213SOL     OW  694   4.931   2.083   0.388
  213SOL    HW1  695   4.936   2.007   0.446
  213SOL    HW2  696   4.840   2.087   0.359
  214SOL     OW  697   4.039   3.087   1.086
  214SOL    HW1  698   4.108   3.024   1.066
  214SOL    HW2  699   3.975   3.076   1.015
  215SOL     OW  700   4.453   1.994   2.102
  215SOL    HW1  701   4.428   1.945   2.023
  215SOL    HW2  702   4.374   2.040   2.128
  216SOL     OW  703   1.760   3.035   1.083
  216SOL    HW1  704   1.713   3.001   1.006
  216SOL    HW2  705   1.853   3.018   1.063
  217SOL     OW  706   3.574   4.639   0.036
  217SOL    HW1  707   3.506   4.673   4.945
  217SOL    HW2  708   3.551   4.671   0.123
  218SOL     OW  709   0.152   4.635   0.293
  218SOL    HW1  710   0.097   4.584   0.234
  218SOL    HW2  711   0.123   4.725   0.282
  219SOL     OW  712   2.423   3.771   2.949
  219SOL    HW1  713   2.354   3.817   2.997
  219SOL    HW2  714   2.400   3.678   2.958
  220SOL     OW  715   3.517   4.237   3.806
  220SOL    HW1  716   3.462   4.314   3.820
  220SOL    HW2  717   3.516   4.224   3.711
  221SOL     OW  718   0.783   4.222   3.742
  221SOL    HW1  719   0.699   4.268   3.750
  221SOL    HW2  720   0.809   4.235   3.651
  222SOL     OW  721   3.685   4.272   0.762
  222SOL    HW1  722   3.745   4.214   0.715
  222SOL    HW2  723   3.713   4.360   0.735
  223SOL     OW  724   3.211   2.184   1.749
  223SOL    HW1  725   3.229   2.260   1.694
  223SOL    HW2  726   3.281   2.185   1.815
  224SOL     OW  727   4.496   0.810   3.466
  224SOL    HW1  728   4.526   0.881   3.523
  224SOL    HW2  729   4.403   0.800   3.487
  225SOL     OW  730   3.429   1.488   0.531
  225SOL    HW1  731   3.446   1.479   0.437
  225SOL    HW2  732   3.474   1.568   0.557
  226SOL     OW  733   2.093   3.162   2.642
  226SOL    HW1  734   2.097   3.166   2.546
  226SOL    HW2  735   2.003   3.188   2.663
  227SOL     OW  736   1.713   1.744   0.706
  227SOL    HW1  737   1.724   1.659   0.664
  227SOL    HW2  738   1.712   1.807   0.633
  228SOL     OW  739   0.826   4.440   1.367
  228SOL    HW1  740   0.741   4.397   1.370
  228SOL    HW2  741   0.843   4.455   1.274
  229SOL     OW  742   1.380   1.438   4.611
  229SOL    HW1  743   1.365   1.396   4.527
  229SOL    HW2  744   1.397   1.365   4.672
  230SOL     OW  745   0.935   1.441   3.054
  230SOL    HW1  746   1.008   1.389   3.019
  230SOL    HW2  747   0.859   1.384   3.045
  231SOL     OW  748   0.820   0.833   2.424
  231SOL    HW1  749   0.764   0.778   2.368
  231SOL    HW2  750   0.874   0.771   2.473
  232SOL     OW  751   4.713   0.058   1.053
  232SOL    HW1  752   4.624   0.036   1.025
  232SOL    HW2  753   4.701   0.135   1.109
  233SOL     OW  754   3.641   2.567   0.037
  233SOL    HW1  755   3.565   2.581   0.093
  233SOL    HW2  756   3.658   2.652   4.963
  234SOL     OW  757   2.368   3.862   0.645
  234SOL    HW1  758   2.314   3.787   0.621
  234SOL    HW2  759   2.411   3.836   0.726
  235SOL     OW  760   3.387   2.377   1.569
  235SOL    HW1  761   3.418   2.381   1.660
  235SOL    HW2  762   3.450   2.321   1.524
  236SOL     OW  763   0.916   4.940   4.650
  236SOL    HW1  764   0.852   4.959   4.581
  236SOL    HW2  765   0.865   4.900   4.720
  237SOL     OW  766   3.385   2.671   0.757
  237SOL    HW1  767   3.421   2.625   0.832
  237SOL    HW2  768   3.297   2.697   0.785
  238SOL     OW  769   1.160   2.320   3.997
  238SOL    HW1  770   1.183   2.393   4.053
  238SOL    HW2  771   1.239   2.303   3.945
  239SOL     OW  772   3.183   4.780   1.815
  239SOL    HW1  773   3.269   4.757   1.781
  239SOL    HW2  774   3.165   4.866   1.777
  240SOL     OW  775   2.811   1.452   1.261
  240SOL    HW1  776   2.836   1.482   1.348
  240SOL    HW2  777   2.735   1.506   1.238
  241SOL     OW  778   4.287   0.781   4.194
  241SOL    HW1  779   4.373   0.804   4.229
  241SOL    HW2  780   4.267   0.696   4.234
  242SOL     OW  781   1.185   4.908   1.257
  242SOL    HW1  782   1.237   4.886   1.335
  242SOL    HW2  783   1.095   4.896   1.285
  243SOL     OW  784   1.121   3.605   2.870
  243SOL    HW1  785   1.153   3.521   2.900
  243SOL    HW2  786   1.187   3.635   2.807
  244SOL     OW  787   4.606   4.903   3.412
  244SOL    HW1  788   4.668   4.861   3.352
  244SOL    HW2  789   4.520   4.879   3.379
  245SOL     OW  790   2.345   3.917   4.398
  245SOL    HW1  791   2.389   3.936   4.481
  245SOL    HW2  792   2.393   3.970   4.334
  246SOL     OW  793   1.454   4.174   2.453
  246SOL    HW1  794   1.409   4.258   2.445
  246SOL    HW2  795   1.512   4.185   2.528
  247SOL     OW  796   1.143   2.153   1.828
  247SOL    HW1  797   1.192   2.157   1.746
  247SOL    HW2  798   1.209   2.157   1.896
  248SOL     OW  799   3.933   2.470   2.083
  248SOL    HW1  800   3.911   2.377   2.078
  248SOL    HW2  801   3.848   2.514   2.096
  249SOL     OW  802   3.325   1.692   2.701
  249SOL    HW1  803   3.324   1.759   2.769
  249SOL    HW2  804   3.234   1.687   2.671
  250SOL     OW  805   0.947   1.333   1.696
  250SOL    HW1  806   1.015   1.269   1.717
  250SOL    HW2  807   0.987   1.390   1.630
  251SOL     OW  808   1.234   0.443   3.483
  251SOL    HW1  809   1.246   0.396   3.401
  251SOL    HW2  810   1.277   0.528   3.468
  252SOL     OW  811   0.711   4.203   2.905
  252SOL    HW1  812   0.764   4.230   2.979
  252SOL    HW2  813   0.759   4.234   2.828
  253SOL     OW  814   1.276   0.292   3.973
  253SOL    HW1  815   1.216   0.361   3.945
  253SOL    HW2  816   1.356   0.308   3.923
  254SOL     OW  817   2.200   0.574   3.678
  254SOL    HW1  818   2.289   0.546   3.695
  254SOL    HW2  819   2.158   0.575   3.764
  255SOL     OW  820   1.706   2.330   1.053
  255SOL    HW1  821   1.636   2.359   1.112
  255SOL    HW2  822   1.783   2.322   1.110
  256SOL     OW  823   0.511   3.922   2.502
  256SOL    HW1  824   0.603   3.899   2.484
  256SOL    HW2  825   0.515   3.976   2.581
  257SOL     OW  826   0.923   4.429   4.203
  257SOL    HW1  827   0.982   4.500   4.228
  257SOL    HW2  828   0.959   4.352   4.246
  258SOL     OW  829   1.299   1.506   2.473
  258SOL    HW1  830   1.355   1.568   2.519
  258SOL    HW2  831   1.212   1.518   2.513
  259SOL     OW  832   2.540   3.199   4.145
  259SOL    HW1  833   2.544   3.129   4.211
  259SOL    HW2  834   2.452   3.234   4.152
  260SOL     OW  835   2.787   4.431   4.474
  260SOL    HW1  836   2.756   4.521   4.486
  260SOL    HW2  837   2.874   4.430   4.514
  261SOL     OW  838   2.726   1.694   3.776
  261SOL    HW1  839   2.631   1.698   3.768
  261SOL    HW2  840   2.751   1.781   3.808
  262SOL     OW  841   2.669   0.674   0.025
  262SOL    HW1  842   2.640   0.627   4.914
  262SOL    HW2  843   2.735   0.735   4.959
  263SOL     OW  844   4.245   3.004   2.459
  263SOL    HW1  845   4.263   3.047   2.375
  263SOL    HW2  846   4.328   2.962   2.482
  264SOL     OW  847   0.854   4.220   0.583
  264SOL    HW1  848   0.862   4.309   0.550
  264SOL    HW2  849   0.803   4.228   0.664
  265SOL     OW  850   0.107   2.618   0.645
  265SOL    HW1  851   0.092   2.564   0.723
  265SOL    HW2  852   0.200   2.638   0.647
  266SOL     OW  853   1.864   0.858   2.360
  266SOL    HW1  854   1.818   0.932   2.400
  266SOL    HW2  855   1.956   0.884   2.359
  267SOL     OW  856   4.424   1.092   1.046
  267SOL    HW1  857   4.353   1.029   1.056
  267SOL    HW2  858   4.503   1.041   1.057
  268SOL     OW  859   1.493   0.667   2.406
  268SOL    HW1  860   1.455   0.753   2.392
  268SOL    HW2  861   1.576   0.669   2.359
  269SOL     OW  862   4.596   2.339   0.654
  269SOL    HW1  863   4.567   2.326   0.564
  269SOL    HW2  864   4.606   2.434   0.663
  270SOL     OW  865   3.199   2.554   3.018
  270SOL    HW1  866   3.176   2.496   2.945
  270SOL    HW2  867   3.222   2.494   3.090
  271SOL     OW  868   0.164   0.792   3.518
  271SOL    HW1  869   0.100   0.746   3.464
  271SOL    HW2  870   0.111   0.833   3.587
  272SOL     OW  871   0.136   0.132   4.770
  272SOL    HW1  872   0.222   0.097   4.743
  272SOL    HW2  873   0.092   0.057   4.810
  273SOL     OW  874   1.054   0.550   0.682
  273SOL    HW1  875   0.989   0.503   0.630
  273SOL    HW2  876   1.111   0.592   0.618
  274SOL     OW  877   3.055   0.037   1.988
  274SOL    HW1  878   3.099   0.027   1.904
  274SOL    HW2  879   3.124   0.063   2.049
  275SOL     OW  880   4.077   4.940   2.301
  275SOL    HW1  881   4.099   4.903   2.215
  275SOL    HW2  882   4.112   4.876   2.364
  276SOL     OW  883   1.197   4.314   1.155
  276SOL    HW1  884   1.176   4.406   1.167
  276SOL    HW2  885   1.209   4.304   1.061
  277SOL     OW  886   1.634   3.157   2.382
  277SOL    HW1  887   1.545   3.141   2.414
  277SOL    HW2  888   1.622   3.206   2.301
  278SOL     OW  889   3.797   2.199   2.168
  278SOL    HW1  890   3.815   2.201   2.074
  278SOL    HW2  891   3.852   2.128   2.201
  279SOL     OW  892   3.165   0.546   3.482
  279SOL    HW1  893   3.130   0.547   3.393
  279SOL    HW2  894   3.168   0.638   3.508
  280SOL     OW  895   3.112   2.816   4.629
  280SOL    HW1  896   3.207   2.811   4.632
  280SOL    HW2  897   3.094   2.885   4.565
  281SOL     OW  898   0.419   4.140   0.612
  281SOL    HW1  899   0.375   4.173   0.690
  281SOL    HW2  900   0.451   4.219   0.568
  282SOL     OW  901   1.186   1.221   1.782
  282SOL    HW1  902   1.227   1.279   1.846
  282SOL    HW2  903   1.238   1.232   1.702
  283SOL     OW  904   0.289   1.361   3.059
  283SOL    HW1  905   0.234   1.339   2.983
  283SOL    HW2  906   0.282   1.285   3.117
  284SOL     OW  907   0.640   2.523   1.077
  284SOL    HW1  908   0.668   2.470   1.151
  284SOL    HW2  909   0.630   2.461   1.005
  285SOL     OW  910   0.183   0.635   4.907
  285SOL    HW1  911   0.256   0.607   4.962
  285SOL    HW2  912   0.151   0.715   4.947
  286SOL     OW  913   2.344   1.244   2.668
  286SOL    HW1  914   2.316   1.188   2.741
  286SOL    HW2  915   2.269   1.245   2.608
  287SOL     OW  916   3.571   1.884   3.694
  287SOL    HW1  917   3.489   1.894   3.647
  287SOL    HW2  918   3.625   1.958   3.664
  288SOL     OW  919   0.682   0.881   0.720
  288SOL    HW1  920   0.744   0.814   0.749
  288SOL    HW2  921   0.736   0.950   0.682
  289SOL     OW  922   4.555   3.562   0.892
  289SOL    HW1  923   4.477   3.547   0.946
  289SOL    HW2  924   4.523   3.610   0.816
  290SOL     OW  925   4.184   2.942   0.445
  290SOL    HW1  926   4.218   2.905   0.364
  290SOL    HW2  927   4.091   2.958   0.427
  291SOL     OW  928   2.992   1.838   0.487
  291SOL    HW1  929   3.044   1.758   0.497
  291SOL    HW2  930   2.994   1.878   0.574
  292SOL     OW  931   0.388   2.880   1.609
  292SOL    HW1  932   0.321   2.831   1.561
  292SOL    HW2  933   0.463   2.883   1.549
  293SOL     OW  934   4.286   4.583   2.682
  293SOL    HW1  935   4.266   4.492   2.658
  293SOL    HW2  936   4.256   4.591   2.772
  294SOL     OW  937   2.389   1.621   3.319
  294SOL    HW1  938   2.430   1.535   3.309
  294SOL    HW2  939   2.306   1.613   3.271
  295SOL     OW  940   4.025   1.886   1.017
  295SOL    HW1  941   4.067   1.803   0.999
  295SOL    HW2  942   3.940   1.880   0.972
  296SOL     OW  943   2.106   0.131   2.082
  296SOL    HW1  944   2.188   0.179   2.070
  296SOL    HW2  945   2.050   0.192   2.131
  297SOL     OW  946   0.500   4.110   3.040
  297SOL    HW1  947   0.586   4.141   3.011
  297SOL    HW2  948   0.519   4.053   3.114
  298SOL     OW  949   2.185   2.416   1.323
  298SOL    HW1  950   2.127   2.433   1.397
  298SOL    HW2  951   2.208   2.324   1.332
  299SOL     OW  952   1.764   0.682   1.205
  299SOL    HW1  953   1.781   0.666   1.297
  299SOL    HW2  954   1.825   0.624   1.159
  300SOL     OW  955   4.056   3.123   3.671
  300SOL    HW1  956   4.146   3.156   3.670
  300SOL    HW2  957   4.062   3.037   3.630
  301SOL     OW  958   3.931   0.057   4.322
  301SOL    HW1  959   3.973   0.120   4.381
  301SOL    HW2  960   3.974   0.069   4.238
  302SOL     OW  961   1.830   2.802   1.357
  302SOL    HW1  962   1.750   2.828   1.312
  302SOL    HW2  963   1.883   2.760   1.289
  303SOL     OW  964   3.434   3.950   0.329
  303SOL    HW1  965   3.356   3.898   0.344
  303SOL    HW2  966   3.435   4.013   0.401
  304SOL     OW  967   2.141   0.956   0.262
  304SOL    HW1  968   2.052   0.983   0.239
  304SOL    HW2  969   2.179   1.034   0.301
  305SOL     OW  970   2.188   1.966   1.717
  305SOL    HW1  971   2.162   1.947   1.626
  305SOL    HW2  972   2.137   1.904   1.769
  306SOL     OW  973   3.360   4.374   0.487
  306SOL    HW1  974   3.292   4.434   0.456
  306SOL    HW2  975   3.440   4.427   0.489
  307SOL     OW  976   4.247   2.805   0.225
  307SOL    HW1  977   4.184   2.744   0.189
  307SOL    HW2  978   4.304   2.827   0.152
  308SOL     OW  979   1.205   2.104   2.558
  308SOL    HW1  980   1.298   2.112   2.581
  308SOL    HW2  981   1.167   2.054   2.631
  309SOL     OW  982   4.670   0.054   3.679
  309SOL    HW1  983   4.643   4.966   3.605
  309SOL    HW2  984   4.616   0.133   3.671
  310SOL     OW  985   0.663   2.339   4.700
  310SOL    HW1  986   0.675   2.391   4.779
  310SOL    HW2  987   0.585   2.286   4.717
  311SOL     OW  988   4.554   1.555   2.462
  311SOL    HW1  989   4.602   1.497   2.402
  311SOL    HW2  990   4.511   1.619   2.404
  312SOL     OW  991   2.307   0.480   0.240
  312SOL    HW1  992   2.241   0.417   0.212
  312SOL    HW2  993   2.260   0.538   0.301
  313SOL     OW  994   1.791   3.922   0.144
  313SOL    HW1  995   1.794   4.013   0.116
  313SOL    HW2  996   1.779   3.872   0.063
  314SOL     OW  997   4.897   1.448   2.233
  314SOL    HW1  998   4.833   1.427   2.301
  314SOL    HW2  999   4.857   1.520   2.184
  315SOL     OW 1000   0.424   4.546   1.577
  315SOL    HW1 1001   0.353   4.512   1.632
  315SOL    HW2 1002   0.406   4.510   1.490
  316SOL     OW 1003   4.262   4.422   1.550
  316SOL    HW1 1004   4.221   4.346   1.592
  316SOL    HW2 1005   4.248   4.407   1.456
  317SOL     OW 1006   1.649   1.474   2.130
  317SOL    HW1 1007   1.558   1.453   2.153
  317SOL    HW2 1008   1.651   1.570   2.128
  318SOL     OW 1009   0.181   0.097   0.972
  318SOL    HW1 1010   0.151   0.150   1.046
  318SOL    HW2 1011   0.254   0.045   1.008
  319SOL     OW 1012   2.405   0.292   4.286
  319SOL    HW1 1013   2.365   0.217   4.242
  319SOL    HW2 1014   2.342   0.363   4.274
  320SOL     OW 1015   2.315   1.147   2.046
  320SOL    HW1 1016   2.356   1.064   2.072
  320SOL    HW2 1017   2.246   1.121   1.985
  321SOL     OW 1018   2.418   1.694   1.979
  321SOL    HW1 1019   2.496   1.640   1.964
  321SOL    HW2 1020   2.346   1.638   1.950
  322SOL     OW 1021   2.008   4.525   3.689
  322SOL    HW1 1022   2.055   4.460   3.741
  322SOL    HW2 1023   2.061   4.534   3.609
  323SOL     OW 1024   2.679   1.187   2.128
  323SOL    HW1 1025   2.615   1.258   2.119
  323SOL    HW2 1026   2.689   1.176   2.223
  324SOL     OW 1027   0.081   3.855   1.420
  324SOL    HW1 1028   0.153   3.858   1.357
  324SOL    HW2 1029   0.005   3.831   1.367
  325SOL     OW 1030   2.407   1.178   1.165
  325SOL    HW1 1031   2.442   1.123   1.095
  325SOL    HW2 1032   2.483   1.220   1.204
  326SOL     OW 1033   0.113   3.514   0.428
  326SOL    HW1 1034   0.061   3.579   0.380
  326SOL    HW2 1035   0.197   3.511   0.381
  327SOL     OW 1036   0.937   0.781   0.797
  327SOL    HW1 1037   0.988   0.705   0.768
  327SOL    HW2 1038   0.991   0.823   0.863
  328SOL     OW 1039   2.638   4.206   4.640
  328SOL    HW1 1040   2.648   4.204   4.545
  328SOL    HW2 1041   2.595   4.289   4.658
  329SOL     OW 1042   1.913   1.471   4.311
  329SOL    HW1 1043   1.923   1.428   4.396
  329SOL    HW2 1044   1.909   1.564   4.333
  330SOL     OW 1045   1.588   2.125   2.176
  330SOL    HW1 1046   1.561   2.037   2.203
  330SOL    HW2 1047   1.559   2.182   2.247
  331SOL     OW 1048   1.609   1.076   0.926
  331SOL    HW1 1049   1.624   0.982   0.933
  331SOL    HW2 1050   1.639   1.112   1.010
  332SOL     OW 1051   2.208   0.049   0.048
  332SOL    HW1 1052   2.282   0.017   0.099
  332SOL    HW2 1053   2.246   0.081   4.933
  333SOL     OW 1054   3.151   4.527   2.357
  333SOL    HW1 1055   3.186   4.496   2.441
  333SOL    HW2 1056   3.226   4.525   2.298
  334SOL     OW 1057   3.186   4.438   1.685
  334SOL    HW1 1058   3.140   4.461   1.766
  334SOL    HW2 1059   3.126   4.381   1.638
  335SOL     OW 1060   2.567   0.569   2.099
  335SOL    HW1 1061   2.500   0.543   2.162
  335SOL    HW2 1062   2.529   0.643   2.052
  336SOL     OW 1063   3.662   4.586   1.830
  336SOL    HW1 1064   3.634   4.500   1.862
  336SOL    HW2 1065   3.747   4.600   1.870
  337SOL     OW 1066   4.222   0.702   4.622
  337SOL    HW1 1067   4.227   0.609   4.603
  337SOL    HW2 1068   4.295   0.741   4.574
  338SOL     OW 1069   3.762   2.056   3.590
  338SOL    HW1 1070   3.829   2.038   3.524
  338SOL    HW2 1071   3.789   2.138   3.630
  339SOL     OW 1072   1.619   0.518   0.968
  339SOL    HW1 1073   1.536   0.472   0.980
  339SOL    HW2 1074   1.669   0.499   1.047
  340SOL     OW 1075   2.207   2.310   3.112
  340SOL    HW1 1076   2.292   2.320   3.156
  340SOL    HW2 1077   2.145   2.294   3.182
  341SOL     OW 1078   4.495   3.891   3.894
  341SOL    HW1 1079   4.418   3.840   3.919
  341SOL    HW2 1080   4.460   3.970   3.854
  342SOL     OW 1081   2.623   3.431   4.600
  342SOL    HW1 1082   2.618   3.400   4.510
  342SOL    HW2 1083   2.582   3.518   4.598
  343SOL     OW 1084   1.778   2.564   4.490
  343SOL    HW1 1085   1.798   2.602   4.576
  343SOL    HW2 1086   1.823   2.480   4.491
  344SOL     OW 1087   4.806   0.890   4.045
  344SOL    HW1 1088   4.833   0.973   4.007
  344SOL    HW2 1089   4.855   0.884   4.128
  345SOL     OW 1090   2.767   3.715   2.534
  345SOL    HW1 1091   2.789   3.794   2.582
  345SOL    HW2 1092   2.768   3.645   2.599
  346SOL     OW 1093   3.515   0.359   1.625
  346SOL    HW1 1094   3.442   0.324   1.675
  346SOL    HW2 1095   3.473   0.402   1.549
  347SOL     OW 1096   2.417   2.244   1.639
  347SOL    HW1 1097   2.484   2.264   1.704
  347SOL    HW2 1098   2.335   2.272   1.679
  348SOL     OW 1099   1.452   0.267   4.565
  348SOL    HW1 1100   1.397   0.311   4.500
  348SOL    HW2 1101   1.406   0.279   4.648
  349SOL     OW 1102   3.379   0.733   3.194
  349SOL    HW1 1103   3.446   0.685   3.146
  349SOL    HW2 1104   3.412   0.823   3.198
  350SOL     OW 1105   1.465   3.502   1.294
  350SOL    HW1 1106   1.452   3.586   1.250
  350SOL    HW2 1107   1.517   3.523   1.371
  351SOL     OW 1108   4.643   1.535   3.359
  351SOL    HW1 1109   4.660   1.488   3.440
  351SOL    HW2 1110   4.710   1.603   3.356
  352SOL     OW 1111   0.068   2.925   3.583
  352SOL    HW1 1112   4.946   2.895   3.603
  352SOL    HW2 1113   0.118   2.845   3.567
  353SOL     OW 1114   1.796   0.971   0.315
  353SOL    HW1 1115   1.718   0.943   0.267
  353SOL    HW2 1116   1.805   1.064   0.294
  354SOL     OW 1117   2.137   4.715   3.098
  354SOL    HW1 1118   2.184   4.632   3.105
  354SOL    HW2 1119   2.049   4.696   3.132
  355SOL     OW 1120   2.416   0.666   4.112
  355SOL    HW1 1121   2.435   0.759   4.121
  355SOL    HW2 1122   2.485   0.633   4.055
  356SOL     OW 1123   0.759   0.238   2.950
  356SOL    HW1 1124   0.688   0.190   2.909
  356SOL    HW2 1125   0.783   0.186   3.027
  357SOL     OW 1126   0.289   4.842   1.443
  357SOL    HW1 1127   0.203   4.834   1.403
  357SOL    HW2 1128   0.287   4.780   1.516
  358SOL     OW 1129   1.105   0.114   3.032
  358SOL    HW1 1130   1.100   0.033   3.084
  358SOL    HW2 1131   1.199   0.131   3.023
  359SOL     OW 1132   2.499   0.099   1.183
  359SOL    HW1 1133   2.412   0.139   1.190
  359SOL    HW2 1134   2.512   0.058   1.269
  360SOL     OW 1135   3.246   0.686   4.605
  360SOL    HW1 1136   3.215   0.698   4.515
  360SOL    HW2 1137   3.266   0.774   4.635
  361SOL     OW 1138   1.880   0.097   0.862
  361SOL    HW1 1139   1.805   0.155   0.852
  361SOL    HW2 1140   1.888   0.052   0.777
  362SOL     OW 1141   4.730   0.103   2.377
  362SOL    HW1 1142   4.705   0.119   2.286
  362SOL    HW2 1143   4.647   0.093   2.423
  363SOL     OW 1144   3.061   3.350   4.192
  363SOL    HW1 1145   3.096   3.285   4.253
  363SOL    HW2 1146   2.968   3.329   4.185
  364SOL     OW 1147   1.747   3.310   0.004
  364SOL    HW1 1148   1.711   3.251   4.904
  364SOL    HW2 1149   1.673   3.328   0.062
  365SOL     OW 1150   0.467   0.934   4.755
  365SOL    HW1 1151   0.408   0.992   4.804
  365SOL    HW2 1152   0.546   0.931   4.809
  366SOL     OW 1153   0.757   1.195   3.282
  366SOL    HW1 1154   0.832   1.145   3.312
  366SOL    HW2 1155   0.765   1.197   3.187
  367SOL     OW 1156   4.080   2.637   2.595
  367SOL    HW1 1157   4.136   2.655   2.519
  367SOL    HW2 1158   4.018   2.571   2.564
  368SOL     OW 1159   4.890   2.292   0.557
  368SOL    HW1 1160   4.799   2.310   0.581
  368SOL    HW2 1161   4.884   2.239   0.478
  369SOL     OW 1162   0.701   4.022   4.283
  369SOL    HW1 1163   0.653   4.084   4.228
  369SOL    HW2 1164   0.787   4.063   4.296
  370SOL     OW 1165   3.500   0.628   4.678
  370SOL    HW1 1166   3.405   0.616   4.665
  370SOL    HW2 1167   3.536   0.619   4.590
  371SOL     OW 1168   3.690   3.093   3.486
  371SOL    HW1 1169   3.750   3.158   3.449
  371SOL    HW2 1170   3.650   3.136   3.561
  372SOL     OW 1171   2.545   0.371   3.563
  372SOL    HW1 1172   2.640   0.381   3.575
  372SOL    HW2 1173   2.517   0.455   3.526
  373SOL     OW 1174   3.799   3.771   2.359
  373SOL    HW1 1175   3.780   3.864   2.346
  373SOL    HW2 1176   3.871   3.753   2.299
  374SOL     OW 1177   4.634   3.886   1.629
  374SOL    HW1 1178   4.612   3.803   1.671
  374SOL    HW2 1179   4.561   3.903   1.569
  375SOL     OW 1180   1.042   2.787   3.073
  375SOL    HW1 1181   1.061   2.712   3.129
  375SOL    HW2 1182   0.987   2.844   3.127
  376SOL     OW 1183   0.809   2.788   0.672
  376SOL    HW1 1184   0.796   2.876   0.707
  376SOL    HW2 1185   0.729   2.770   0.623
  377SOL     OW 1186   3.279   4.522   2.098
  377SOL    HW1 1187   3.312   4.434   2.080
  377SOL    HW2 1188   3.208   4.535   2.035
  378SOL     OW 1189   3.234   3.852   4.867
  378SOL    HW1 1190   3.181   3.796   4.923
  378SOL    HW2 1191   3.175   3.878   4.796
  379SOL     OW 1192   3.734   2.258   4.599
  379SOL    HW1 1193   3.762   2.339   4.643
  379SOL    HW2 1194   3.656   2.230   4.647
  380SOL     OW 1195   3.972   4.424   4.734
  380SOL    HW1 1196   3.883   4.455   4.752
  380SOL    HW2 1197   3.975   4.414   4.639
  381SOL     OW 1198   4.261   3.867   4.460
  381SOL    HW1 1199   4.250   3.791   4.518
  381SOL    HW2 1200   4.311   3.834   4.386
  382SOL     OW 1201   4.723   2.444   2.678
  382SOL    HW1 1202   4.785   2.447   2.605
  382SOL    HW2 1203   4.641   2.417   2.638
  383SOL     OW 1204   3.636   3.243   0.411
  383SOL    HW1 1205   3.710   3.248   0.351
  383SOL    HW2 1206   3.567   3.199   0.361
  384SOL     OW 1207   1.366   3.455   4.520
  384SOL    HW1 1208   1.356   3.496   4.434
  384SOL    HW2 1209   1.461   3.449   4.533
  385SOL     OW 1210   2.396   2.130   3.510
  385SOL    HW1 1211   2.394   2.044   3.468
  385SOL    HW2 1212   2.484   2.137   3.547
  386SOL     OW 1213   3.892   0.870   3.442
  386SOL    HW1 1214   3.829   0.942   3.439
  386SOL    HW2 1215   3.913   0.852   3.350
  387SOL     OW 1216   2.406   4.284   3.930
  387SOL    HW1 1217   2.484   4.286   3.986
  387SOL    HW2 1218   2.440   4.264   3.843
  388SOL     OW 1219   2.567   2.296   4.681
  388SOL    HW1 1220   2.630   2.227   4.664
  388SOL    HW2 1221   2.499   2.254   4.734
  389SOL     OW 1222   1.201   2.594   3.226
  389SOL    HW1 1223   1.274   2.645   3.261
  389SOL    HW2 1224   1.241   2.514   3.193
  390SOL     OW 1225   3.863   1.666   4.505
  390SOL    HW1 1226   3.890   1.701   4.590
  390SOL    HW2 1227   3.836   1.576   4.524
  391SOL     OW 1228   4.463   1.133   2.480
  391SOL    HW1 1229   4.384   1.079   2.484
  391SOL    HW2 1230   4.496   1.134   2.570
  392SOL     OW 1231   3.768   3.235   4.084
  392SOL    HW1 1232   3.826   3.160   4.071
  392SOL    HW2 1233   3.826   3.310   4.091
  393SOL     OW 1234   3.686   4.564   2.729
  393SOL    HW1 1235   3.680   4.653   2.693
  393SOL    HW2 1236   3.659   4.574   2.820
  394SOL     OW 1237   3.489   4.287   2.232
  394SOL    HW1 1238   3.558   4.309   2.168
  394SOL    HW2 1239   3.480   4.366   2.285
  395SOL     OW 1240   4.651   0.452   4.769
  395SOL    HW1 1241   4.714   0.507   4.816
  395SOL    HW2 1242   4.696   0.369   4.757
  396SOL     OW 1243   0.868   4.415   1.102
  396SOL    HW1 1244   0.778   4.406   1.073
  396SOL    HW2 1245   0.910   4.333   1.075
  397SOL     OW 1246   2.968   3.957   1.183
  397SOL    HW1 1247   2.905   3.884   1.190
  397SOL    HW2 1248   2.914   4.035   1.191
  398SOL     OW 1249   0.177   1.481   1.880
  398SOL    HW1 1250   0.169   1.387   1.898
  398SOL    HW2 1251   0.271   1.498   1.882
  399SOL     OW 1252   4.270   1.362   2.400
  399SOL    HW1 1253   4.209   1.398   2.465
  399SOL    HW2 1254   4.357   1.379   2.436
  400SOL     OW 1255   0.517   2.319   0.397
  400SOL    HW1 1256   0.585   2.361   0.345
  400SOL    HW2 1257   0.446   2.382   0.400
  401SOL     OW 1258   1.618   0.007   2.692
  401SOL    HW1 1259   1.637   4.921   2.614
  401SOL    HW2 1260   1.529   0.039   2.679
  402SOL     OW 1261   4.122   1.385   4.294
  402SOL    HW1 1262   4.115   1.441   4.371
  402SOL    HW2 1263   4.033   1.375   4.262
  403SOL     OW 1264   3.666   3.037   3.917
  403SOL    HW1 1265   3.643   2.950   3.947
  403SOL    HW2 1266   3.598   3.094   3.954
  404SOL     OW 1267   0.488   1.364   1.077
  404SOL    HW1 1268   0.406   1.409   1.059
  404SOL    HW2 1269   0.556   1.431   1.065
  405SOL     OW 1270   4.690   4.588   2.766
  405SOL    HW1 1271   4.668   4.496   2.779
  405SOL    HW2 1272   4.637   4.634   2.831
  406SOL     OW 1273   4.395   1.073   3.075
  406SOL    HW1 1274   4.366   0.997   3.025
  406SOL    HW2 1275   4.361   1.148   3.026
  407SOL     OW 1276   3.048   1.227   3.359
  407SOL    HW1 1277   3.110   1.259   3.424
  407SOL    HW2 1278   3.001   1.156   3.403
  408SOL     OW 1279   3.482   4.337   2.888
  408SOL    HW1 1280   3.504   4.335   2.795
  408SOL    HW2 1281   3.393   4.302   2.893
  409SOL     OW 1282   1.167   4.700   0.446
  409SOL    HW1 1283   1.179   4.699   0.541
  409SOL    HW2 1284   1.229   4.766   0.414
  410SOL     OW 1285   1.018   4.905   2.410
  410SOL    HW1 1286   1.004   4.891   2.504
  410SOL    HW2 1287   0.960   0.012   2.388
  411SOL     OW 1288   1.536   0.367   3.383
  411SOL    HW1 1289   1.616   0.419   3.379
  411SOL    HW2 1290   1.530   0.339   3.474
  412SOL     OW 1291   1.803   2.964   3.757
  412SOL    HW1 1292   1.825   2.905   3.828
  412SOL    HW2 1293   1.707   2.960   3.751
  413SOL     OW 1294   3.131   0.799   2.316
  413SOL    HW1 1295   3.100   0.854   2.388
  413SOL    HW2 1296   3.178   0.728   2.359
  414SOL     OW 1297   1.698   0.419   2.308
  414SOL    HW1 1298   1.769   0.414   2.373
  414SOL    HW2 1299   1.721   0.495   2.254
  415SOL     OW 1300   1.119   0.285   1.612
  415SOL    HW1 1301   1.083   0.372   1.626
  415SOL    HW2 1302   1.162   0.290   1.527
  416SOL     OW 1303   3.703   3.191   4.941
  416SOL    HW1 1304   3.716   3.221   0.064
  416SOL    HW2 1305   3.762   3.116   4.932
  417SOL     OW 1306   3.432   4.040   2.338
  417SOL    HW1 1307   3.419   4.130   2.308
  417SOL    HW2 1308   3.350   4.017   2.383
  418SOL     OW 1309   3.255   0.208   3.527
  418SOL    HW1 1310   3.287   0.298   3.520
  418SOL    HW2 1311   3.202   0.208   3.606
  419SOL     OW 1312   0.616   3.817   1.478
  419SOL    HW1 1313   0.643   3.908   1.495
  419SOL    HW2 1314   0.525   3.813   1.509
  420SOL     OW 1315   2.044   3.616   3.637
  420SOL    HW1 1316   2.083   3.533   3.664
  420SOL    HW2 1317   2.058   3.675   3.711
  421SOL     OW 1318   3.585   0.557   4.396
  421SOL    HW1 1319   3.599   0.588   4.307
  421SOL    HW2 1320   3.613   0.465   4.394
  422SOL     OW 1321   4.309   3.148   1.924
  422SOL    HW1 1322   4.229   3.189   1.889
  422SOL    HW2 1323   4.378   3.211   1.904
  423SOL     OW 1324   2.509   1.800   2.874
  423SOL    HW1 1325   2.547   1.882   2.907
  423SOL    HW2 1326   2.420   1.799   2.908
  424SOL     OW 1327   3.933   0.888   3.694
  424SOL    HW1 1328   3.930   0.983   3.695
  424SOL    HW2 1329   3.958   0.866   3.604
  425SOL     OW 1330   2.151   4.378   3.984
  425SOL    HW1 1331   2.169   4.447   4.048
  425SOL    HW2 1332   2.237   4.345   3.959
  426SOL     OW 1333   0.068   4.008   4.408
  426SOL    HW1 1334   0.009   3.988   4.481
  426SOL    HW2 1335   0.084   4.102   4.415
  427SOL     OW 1336   4.350   4.637   4.489
  427SOL    HW1 1337   4.347   4.599   4.577
  427SOL    HW2 1338   4.334   4.563   4.430
  428SOL     OW 1339   3.381   0.645   0.998
  428SOL    HW1 1340   3.473   0.649   1.022
  428SOL    HW2 1341   3.359   0.736   0.974
  429SOL     OW 1342   0.206   1.039   2.273
  429SOL    HW1 1343   0.125   1.089   2.283
  429SOL    HW2 1344   0.265   1.099   2.227
  430SOL     OW 1345   3.034   3.285   4.804
  430SOL    HW1 1346   3.052   3.347   4.875
  430SOL    HW2 1347   3.022   3.340   4.727
  431SOL     OW 1348   1.234   4.241   1.548
  431SOL    HW1 1349   1.313   4.221   1.599
  431SOL    HW2 1350   1.241   4.334   1.527
  432SOL     OW 1351   1.227   0.492   3.747
  432SOL    HW1 1352   1.174   0.568   3.773
  432SOL    HW2 1353   1.214   0.485   3.653
  433SOL     OW 1354   0.670   4.506   2.441
  433SOL    HW1 1355   0.615   4.428   2.431
  433SOL    HW2 1356   0.759   4.472   2.442
  434SOL     OW 1357   4.871   4.905   2.604
  434SOL    HW1 1358   4.924   4.894   2.525
  434SOL    HW2 1359   4.781   4.888   2.575
  435SOL     OW 1360   1.659   4.928   0.184
  435SOL    HW1 1361   1.611   0.027   0.236
  435SOL    HW2 1362   1.680   0.007   0.102
  436SOL     OW 1363   1.626   3.877   1.526
  436SOL    HW1 1364   1.629   3.915   1.613
  436SOL    HW2 1365   1.550   3.917   1.484
  437SOL     OW 1366   3.150   1.538   4.705
  437SOL    HW1 1367   3.211   1.608   4.726
  437SOL    HW2 1368   3.189   1.494   4.630
  438SOL     OW 1369   1.158   4.936   0.115
  438SOL    HW1 1370   1.079   4.885   0.098
  438SOL    HW2 1371   1.142   0.054   0.073
  439SOL     OW 1372   4.099   4.798   4.039
  439SOL    HW1 1373   4.024   4.784   3.981
  439SOL    HW2 1374   4.082   4.883   4.079
  440SOL     OW 1375   2.341   4.904   0.257
  440SOL    HW1 1376   2.415   4.961   0.275
  440SOL    HW2 1377   2.282   4.917   0.331
  441SOL     OW 1378   2.278   1.932   1.120
  441SOL    HW1 1379   2.199   1.971   1.083
  441SOL    HW2 1380   2.301   1.988   1.194
  442SOL     OW 1381   0.434   2.132   1.348
  442SOL    HW1 1382   0.376   2.198   1.387
  442SOL    HW2 1383   0.460   2.077   1.422
  443SOL     OW 1384   3.908   1.007   4.330
  443SOL    HW1 1385   3.991   1.014   4.282
  443SOL    HW2 1386   3.935   0.988   4.420
  444SOL     OW 1387   1.943   1.546   3.233
  444SOL    HW1 1388   1.907   1.560   3.321
  444SOL    HW2 1389   1.957   1.452   3.228
  445SOL     OW 1390   3.169   0.943   0.795
  445SOL    HW1 1391   3.191   0.907   0.882
  445SOL    HW2 1392   3.075   0.959   0.799
  446SOL     OW 1393   2.669   3.300   2.951
  446SOL    HW1 1394   2.742   3.257   2.906
  446SOL    HW2 1395   2.650   3.241   3.025
  447SOL     OW 1396   4.712   4.008   4.761
  447SOL    HW1 1397   4.719   4.014   4.856
  447SOL    HW2 1398   4.682   4.094   4.733
  448SOL     OW 1399   4.851   0.443   3.159
  448SOL    HW1 1400   4.766   0.410   3.186
  448SOL    HW2 1401   4.907   0.365   3.157
  449SOL     OW 1402   2.776   2.166   2.426
  449SOL    HW1 1403   2.758   2.256   2.397
  449SOL    HW2 1404   2.838   2.132   2.362
  450SOL     OW 1405   2.495   1.351   0.192
  450SOL    HW1 1406   2.578   1.303   0.195
  450SOL    HW2 1407   2.472   1.353   0.099
  451SOL     OW 1408   4.099   2.739   1.204
  451SOL    HW1 1409   4.135   2.805   1.145
  451SOL    HW2 1410   4.056   2.676   1.146
  452SOL     OW 1411   2.037   4.848   4.655
  452SOL    HW1 1412   2.024   4.770   4.602
  452SOL    HW2 1413   2.004   4.920   4.601
  453SOL     OW 1414   1.404   0.660   3.894
  453SOL    HW1 1415   1.420   0.639   3.987
  453SOL    HW2 1416   1.353   0.585   3.862
  454SOL     OW 1417   4.865   2.702   4.739
  454SOL    HW1 1418   4.942   2.748   4.705
  454SOL    HW2 1419   4.855   2.626   4.682
  455SOL     OW 1420   4.682   0.108   1.481
  455SOL    HW1 1421   4.638   0.031   1.445
  455SOL    HW2 1422   4.775   0.086   1.476
  456SOL     OW 1423   0.606   2.408   3.622
  456SOL    HW1 1424   0.597   2.337   3.686
  456SOL    HW2 1425   0.545   2.386   3.552
  457SOL     OW 1426   0.131   0.340   3.948
  457SOL    HW1 1427   0.068   0.412   3.952
  457SOL    HW2 1428   0.086   0.272   3.898
  458SOL     OW 1429   3.593   2.353   2.246
  458SOL    HW1 1430   3.580   2.365   2.340
  458SOL    HW2 1431   3.677   2.308   2.238
  459SOL     OW 1432   3.197   1.378   3.533
  459SOL    HW1 1433   3.150   1.461   3.522
  459SOL    HW2 1434   3.286   1.398   3.505
  460SOL     OW 1435   4.010   3.901   2.870
  460SOL    HW1 1436   3.951   3.976   2.858
  460SOL    HW2 1437   3.985   3.840   2.801
  461SOL     OW 1438   1.470   3.311   2.178
  461SOL    HW1 1439   1.381   3.336   2.203
  461SOL    HW2 1440   1.524   3.386   2.202
  462SOL     OW 1441   4.454   1.828   4.697
  462SOL    HW1 1442   4.404   1.857   4.773
  462SOL    HW2 1443   4.486   1.908   4.657
  463SOL     OW 1444   4.572   0.686   3.148
  463SOL    HW1 1445   4.654   0.727   3.121
  463SOL    HW2 1446   4.542   0.738   3.222
  464SOL     OW 1447   2.335   1.489   2.924
  464SOL    HW1 1448   2.422   1.506   2.960
  464SOL    HW2 1449   2.322   1.556   2.858
  465SOL     OW 1450   4.128   1.437   2.696
  465SOL    HW1 1451   4.221   1.458   2.682
  465SOL    HW2 1452   4.129   1.347   2.728
  466SOL     OW 1453   1.092   1.654   3.669
  466SOL    HW1 1454   1.169   1.675   3.721
  466SOL    HW2 1455   1.117   1.679   3.579
  467SOL     OW 1456   3.430   3.042   4.755
  467SOL    HW1 1457   3.443   3.135   4.774
  467SOL    HW2 1458   3.500   3.019   4.695
  468SOL     OW 1459   2.647   2.616   0.056
  468SOL    HW1 1460   2.552   2.628   0.046
  468SOL    HW2 1461   2.657   2.579   0.143
  469SOL     OW 1462   2.014   3.490   0.304
  469SOL    HW1 1463   1.927   3.480   0.342
  469SOL    HW2 1464   2.012   3.435   0.225
  470SOL     OW 1465   4.268   3.628   4.653
  470SOL    HW1 1466   4.215   3.696   4.696
  470SOL    HW2 1467   4.236   3.546   4.691
  471SOL     OW 1468   3.054   0.731   2.033
  471SOL    HW1 1469   2.962   0.737   2.006
  471SOL    HW2 1470   3.052   0.743   2.128
  472SOL     OW 1471   0.709   2.533   4.897
  472SOL    HW1 1472   0.642   2.587   4.939
  472SOL    HW2 1473   0.792   2.564   4.935
  473SOL     OW 1474   4.576   0.501   2.734
  473SOL    HW1 1475   4.576   0.540   2.647
  473SOL    HW2 1476   4.669   0.497   2.758
  474SOL     OW 1477   0.556   1.331   3.870
  474SOL    HW1 1478   0.649   1.316   3.851
  474SOL    HW2 1479   0.511   1.257   3.830
  475SOL     OW 1480   4.353   4.132   0.318
  475SOL    HW1 1481   4.365   4.093   0.231
  475SOL    HW2 1482   4.328   4.223   0.300
  476SOL     OW 1483   0.895   1.093   2.519
  476SOL    HW1 1484   0.824   1.156   2.505
  476SOL    HW2 1485   0.878   1.023   2.455
  477SOL     OW 1486   1.570   1.459   3.992
  477SOL    HW1 1487   1.615   1.544   3.991
  477SOL    HW2 1488   1.615   1.408   3.925
  478SOL     OW 1489   0.644   1.491   3.357
  478SOL    HW1 1490   0.562   1.518   3.315
  478SOL    HW2 1491   0.683   1.430   3.295
  479SOL     OW 1492   2.309   4.583   2.608
  479SOL    HW1 1493   2.299   4.556   2.517
  479SOL    HW2 1494   2.384   4.533   2.640
  480SOL     OW 1495   4.296   0.064   3.411
  480SOL    HW1 1496   4.232   0.114   3.361
  480SOL    HW2 1497   4.294   0.102   3.499
  481SOL     OW 1498   1.788   4.674   3.267
  481SOL    HW1 1499   1.853   4.650   3.333
  481SOL    HW2 1500   1.708   4.690   3.317
  482SOL     OW 1501   0.708   1.297   2.497
  482SOL    HW1 1502   0.695   1.350   2.576
  482SOL    HW2 1503   0.717   1.361   2.426
  483SOL     OW 1504   0.435   4.388   3.976
  483SOL    HW1 1505   0.353   4.395   3.927
  483SOL    HW2 1506   0.472   4.476   3.973
  484SOL     OW 1507   4.122   0.230   3.304
  484SOL    HW1 1508   4.030   0.228   3.275
  484SOL    HW2 1509   4.129   0.310   3.356
  485SOL     OW 1510   2.744   1.368   4.059
  485SOL    HW1 1511   2.794   1.382   4.140
  485SOL    HW2 1512   2.795   1.412   3.991
  486SOL     OW 1513   2.915   2.790   1.622
  486SOL    HW1 1514   2.948   2.788   1.712
  486SOL    HW2 1515   2.897   2.882   1.605
  487SOL     OW 1516   3.784   4.732   4.051
  487SOL    HW1 1517   3.731   4.663   4.091
  487SOL    HW2 1518   3.738   4.813   4.070
  488SOL     OW 1519   3.385   1.233   2.833
  488SOL    HW1 1520   3.373   1.282   2.751
  488SOL    HW2 1521   3.344   1.148   2.815
  489SOL     OW 1522   3.574   4.957   4.688
  489SOL    HW1 1523   3.649   4.961   4.628
  489SOL    HW2 1524   3.614   4.960   4.775
  490SOL     OW 1525   1.080   0.503   4.922
  490SOL    HW1 1526   1.141   0.552   4.866
  490SOL    HW2 1527   1.133   0.431   4.957
  491SOL     OW 1528   3.096   1.232   2.412
  491SOL    HW1 1529   3.179   1.236   2.458
  491SOL    HW2 1530   3.068   1.141   2.420
  492SOL     OW 1531   1.328   0.156   0.651
  492SOL    HW1 1532   1.306   0.073   0.608
  492SOL    HW2 1533   1.387   0.131   0.722
  493SOL     OW 1534   2.693   0.185   4.637
  493SOL    HW1 1535   2.616   0.145   4.678
  493SOL    HW2 1536   2.661   0.215   4.551
  494SOL     OW 1537   2.154   4.254   1.231
  494SOL    HW1 1538   2.190   4.202   1.159
  494SOL    HW2 1539   2.202   4.224   1.308
  495SOL     OW 1540   3.658   2.941   0.339
  495SOL    HW1 1541   3.618   3.001   0.276
  495SOL    HW2 1542   3.602   2.947   0.416
  496SOL     OW 1543   2.736   4.851   4.785
  496SOL    HW1 1544   2.774   4.931   4.748
  496SOL    HW2 1545   2.777   4.841   4.871
  497SOL     OW 1546   3.277   2.581   1.421
  497SOL    HW1 1547   3.317   2.528   1.490
  497SOL    HW2 1548   3.338   2.652   1.406
  498SOL     OW 1549   2.152   3.101   1.928
  498SOL    HW1 1550   2.120   3.131   1.843
  498SOL    HW2 1551   2.232   3.151   1.943
  499SOL     OW 1552   1.041   0.562   1.578
  499SOL    HW1 1553   1.009   0.589   1.492
  499SOL    HW2 1554   1.035   0.640   1.632
  500SOL     OW 1555   1.333   1.165   1.262
  500SOL    HW1 1556   1.389   1.225   1.213
  500SOL    HW2 1557   1.370   1.163   1.350
  501SOL     OW 1558   4.347   0.771   0.144
  501SOL    HW1 1559   4.343   0.867   0.141
  501SOL    HW2 1560   4.440   0.750   0.139
  502SOL     OW 1561   0.948   1.064   1.804
  502SOL    HW1 1562   1.021   1.123   1.824
  502SOL    HW2 1563   0.911   1.042   1.889
  503SOL     OW 1564   0.939   3.617   3.847
  503SOL    HW1 1565   0.873   3.683   3.869
  503SOL    HW2 1566   0.936   3.610   3.752
  504SOL     OW 1567   2.955   3.725   1.457
  504SOL    HW1 1568   3.017   3.701   1.388
  504SOL    HW2 1569   3.010   3.740   1.535
  505SOL     OW 1570   2.999   0.234   3.670
  505SOL    HW1 1571   2.949   0.154   3.689
  505SOL    HW2 1572   3.039   0.258   3.753
  506SOL     OW 1573   1.583   0.189   2.378
  506SOL    HW1 1574   1.610   0.124   2.312
  506SOL    HW2 1575   1.620   0.271   2.346
  507SOL     OW 1576   3.569   4.574   4.204
  507SOL    HW1 1577   3.498   4.573   4.267
  507SOL    HW2 1578   3.527   4.592   4.120
  508SOL     OW 1579   4.302   0.188   0.770
  508SOL    HW1 1580   4.323   0.245   0.844
  508SOL    HW2 1581   4.351   0.224   0.697
  509SOL     OW 1582   0.249   3.092   3.729
  509SOL    HW1 1583   0.305   3.122   3.658
  509SOL    HW2 1584   0.184   3.036   3.686
  510SOL     OW 1585   4.957   1.116   1.767
  510SOL    HW1 1586   4.956   1.146   1.676
  510SOL    HW2 1587   4.893   1.171   1.812
  511SOL     OW 1588   0.063   2.912   4.634
  511SOL    HW1 1589   0.142   2.904   4.582
  511SOL    HW2 1590   0.057   3.006   4.654
  512SOL     OW 1591   1.245   4.872   3.258
  512SOL    HW1 1592   1.253   4.779   3.282
  512SOL    HW2 1593   1.290   4.879   3.174
  513SOL     OW 1594   2.171   3.358   0.524
  513SOL    HW1 1595   2.118   3.393   0.452
  513SOL    HW2 1596   2.175   3.430   0.587
  514SOL     OW 1597   2.627   3.760   3.267
  514SOL    HW1 1598   2.686   3.761   3.343
  514SOL    HW2 1599   2.544   3.792   3.301
  515SOL     OW 1600   0.744   3.153   1.958
  515SOL    HW1 1601   0.671   3.145   1.896
  515SOL    HW2 1602   0.822   3.141   1.905
  516SOL     OW 1603   0.428   0.568   4.180
  516SOL    HW1 1604   0.432   0.503   4.110
  516SOL    HW2 1605   0.440   0.518   4.261
  517SOL     OW 1606   0.901   1.884   4.413
  517SOL    HW1 1607   0.861   1.953   4.465
  517SOL    HW2 1608   0.958   1.838   4.474
  518SOL     OW 1609   2.925   0.670   1.391
  518SOL    HW1 1610   2.885   0.583   1.390
  518SOL    HW2 1611   2.883   0.714   1.465
  519SOL     OW 1612   0.428   1.568   3.937
  519SOL    HW1 1613   0.417   1.560   4.031
  519SOL    HW2 1614   0.511   1.523   3.918
  520SOL     OW 1615   1.207   4.297   3.746
  520SOL    HW1 1616   1.124   4.320   3.787
  520SOL    HW2 1617   1.274   4.323   3.809
  521SOL     OW 1618   4.142   3.610   2.445
  521SOL    HW1 1619   4.098   3.526   2.430
  521SOL    HW2 1620   4.234   3.592   2.430
  522SOL     OW 1621   2.374   3.610   2.391
  522SOL    HW1 1622   2.452   3.582   2.343
  522SOL    HW2 1623   2.355   3.536   2.449
  523SOL     OW 1624   2.555   0.761   1.888
  523SOL    HW1 1625   2.587   0.835   1.938
  523SOL    HW2 1626   2.632   0.705   1.876
  524SOL     OW 1627   2.449   1.610   3.709
  524SOL    HW1 1628   2.369   1.560   3.725
  524SOL    HW2 1629   2.426   1.700   3.731
  525SOL     OW 1630   2.421   2.564   2.644
  525SOL    HW1 1631   2.334   2.549   2.609
  525SOL    HW2 1632   2.480   2.523   2.580
  526SOL     OW 1633   0.316   3.386   2.617
  526SOL    HW1 1634   0.280   3.404   2.704
  526SOL    HW2 1635   0.349   3.470   2.586
  527SOL     OW 1636   4.521   4.571   1.214
  527SOL    HW1 1637   4.492   4.655   1.178
  527SOL    HW2 1638   4.543   4.589   1.305
  528SOL     OW 1639   2.827   3.434   1.916
  528SOL    HW1 1640   2.828   3.428   1.820
  528SOL    HW2 1641   2.893   3.501   1.936
  529SOL     OW 1642   2.864   0.065   1.649
  529SOL    HW1 1643   2.795   4.966   1.660
  529SOL    HW2 1644   2.879   0.069   1.555
  530SOL     OW 1645   1.344   1.401   0.643
  530SOL    HW1 1646   1.250   1.382   0.641
  530SOL    HW2 1647   1.381   1.336   0.703
  531SOL     OW 1648   4.637   3.624   1.765
  531SOL    HW1 1649   4.705   3.638   1.831
  531SOL    HW2 1650   4.682   3.581   1.692
  532SOL     OW 1651   3.963   2.108   2.734
  532SOL    HW1 1652   3.890   2.106   2.672
  532SOL    HW2 1653   4.041   2.090   2.680
  533SOL     OW 1654   4.032   1.929   3.423
  533SOL    HW1 1655   4.077   1.857   3.467
  533SOL    HW2 1656   4.067   2.008   3.464
  534SOL     OW 1657   4.437   2.474   1.544
  534SOL    HW1 1658   4.387   2.509   1.470
  534SOL    HW2 1659   4.392   2.507   1.622
  535SOL     OW 1660   1.227   3.241   4.639
  535SOL    HW1 1661   1.263   3.314   4.589
  535SOL    HW2 1662   1.300   3.181   4.652
  536SOL     OW 1663   3.381   3.423   0.136
  536SOL    HW1 1664   3.387   3.513   0.169
  536SOL    HW2 1665   3.287   3.408   0.125
  537SOL     OW 1666   0.064   2.113   1.691
  537SOL    HW1 1667   0.157   2.100   1.709
  537SOL    HW2 1668   0.045   2.053   1.619
  538SOL     OW 1669   2.997   4.510   4.637
  538SOL    HW1 1670   3.083   4.499   4.678
  538SOL    HW2 1671   2.935   4.510   4.711
  539SOL     OW 1672   3.088   2.860   0.431
  539SOL    HW1 1673   3.098   2.949   0.398
  539SOL    HW2 1674   2.997   2.856   0.460
  540SOL     OW 1675   4.807   1.350   0.837
  540SOL    HW1 1676   4.726   1.322   0.880
  540SOL    HW2 1677   4.877   1.307   0.886
  541SOL     OW 1678   0.102   1.964   2.989
  541SOL    HW1 1679   0.101   2.056   2.961
  541SOL    HW2 1680   0.013   1.946   3.017
  542SOL     OW 1681   2.330   3.433   4.680
  542SOL    HW1 1682   2.280   3.474   4.609
  542SOL    HW2 1683   2.278   3.450   4.758
  543SOL     OW 1684   2.102   4.297   4.312
  543SOL    HW1 1685   2.033   4.296   4.246
  543SOL    HW2 1686   2.135   4.387   4.312
  544SOL     OW 1687   0.166   0.253   1.321
  544SOL    HW1 1688   0.215   0.300   1.388
  544SOL    HW2 1689   0.112   0.321   1.279
  545SOL     OW 1690   4.109   1.730   1.294
  545SOL    HW1 1691   4.175   1.778   1.343
  545SOL    HW2 1692   4.135   1.738   1.203
  546SOL     OW 1693   3.897   3.290   3.476
  546SOL    HW1 1694   3.940   3.238   3.543
  546SOL    HW2 1695   3.967   3.313   3.415
  547SOL     OW 1696   4.241   2.255   4.666
  547SOL    HW1 1697   4.217   2.224   4.578
  547SOL    HW2 1698   4.283   2.180   4.707
  548SOL     OW 1699   4.479   3.997   1.409
  548SOL    HW1 1700   4.398   4.038   1.380
  548SOL    HW2 1701   4.541   4.012   1.337
  549SOL     OW 1702   4.724   0.618   3.595
  549SOL    HW1 1703   4.630   0.630   3.581
  549SOL    HW2 1704   4.741   0.659   3.680
  550SOL     OW 1705   4.077   3.570   1.974
  550SOL    HW1 1706   4.169   3.590   1.962
  550SOL    HW2 1707   4.067   3.480   1.941
  551SOL     OW 1708   4.727   1.141   2.941
  551SOL    HW1 1709   4.776   1.210   2.896
  551SOL    HW2 1710   4.757   1.060   2.901
  552SOL     OW 1711   2.243   0.198   2.652
  552SOL    HW1 1712   2.192   0.215   2.573
  552SOL    HW2 1713   2.334   0.200   2.622
  553SOL     OW 1714   4.538   2.313   0.377
  553SOL    HW1 1715   4.623   2.328   0.337
  553SOL    HW2 1716   4.479   2.299   0.304
  554SOL     OW 1717   3.910   0.651   2.682
  554SOL    HW1 1718   3.980   0.595   2.648
  554SOL    HW2 1719   3.944   0.740   2.673
  555SOL     OW 1720   0.794   3.478   4.696
  555SOL    HW1 1721   0.760   3.474   4.606
  555SOL    HW2 1722   0.852   3.403   4.703
  556SOL     OW 1723   3.357   0.554   0.454
  556SOL    HW1 1724   3.295   0.504   0.401
  556SOL    HW2 1725   3.303   0.596   0.521
  557SOL     OW 1726   2.524   1.123   3.723
  557SOL    HW1 1727   2.464   1.159   3.788
  557SOL    HW2 1728   2.476   1.049   3.685
  558SOL     OW 1729   0.621   1.022   2.252
  558SOL    HW1 1730   0.561   0.958   2.214
  558SOL    HW2 1731   0.692   0.969   2.289
  559SOL     OW 1732   3.261   4.417   2.596
  559SOL    HW1 1733   3.306   4.494   2.630
  559SOL    HW2 1734   3.239   4.366   2.674
  560SOL     OW 1735   4.049   0.685   0.080
  560SOL    HW1 1736   4.040   0.712   4.955
  560SOL    HW2 1737   4.131   0.724   0.109
  561SOL     OW 1738   1.555   4.410   2.208
  561SOL    HW1 1739   1.522   4.500   2.199
  561SOL    HW2 1740   1.476   4.358   2.226
  562SOL     OW 1741   2.109   3.975   2.204
  562SOL    HW1 1742   2.164   4.011   2.275
  562SOL    HW2 1743   2.040   3.928   2.249
  563SOL     OW 1744   2.598   0.578   3.888
  563SOL    HW1 1745   2.655   0.637   3.937
  563SOL    HW2 1746   2.561   0.632   3.818
  564SOL     OW 1747   1.312   0.702   1.805
  564SOL    HW1 1748   1.347   0.764   1.869
  564SOL    HW2 1749   1.232   0.744   1.772
  565SOL     OW 1750   1.193   4.853   4.364
  565SOL    HW1 1751   1.233   4.907   4.432
  565SOL    HW2 1752   1.145   4.914   4.309
  566SOL     OW 1753   1.258   2.108   3.719
  566SOL    HW1 1754   1.314   2.158   3.778
  566SOL    HW2 1755   1.171   2.148   3.729
  567SOL     OW 1756   3.954   2.992   1.327
  567SOL    HW1 1757   3.874   2.940   1.337
  567SOL    HW2 1758   3.960   3.008   1.233
  568SOL     OW 1759   1.971   1.788   1.142
  568SOL    HW1 1760   1.932   1.845   1.208
  568SOL    HW2 1761   2.008   1.848   1.078
  569SOL     OW 1762   1.783   0.560   1.837
  569SOL    HW1 1763   1.710   0.529   1.782
  569SOL    HW2 1764   1.856   0.503   1.814
  570SOL     OW 1765   3.737   0.152   4.500
  570SOL    HW1 1766   3.785   0.080   4.461
  570SOL    HW2 1767   3.783   0.170   4.582
  571SOL     OW 1768   2.894   2.963   1.223
  571SOL    HW1 1769   2.849   2.906   1.161
  571SOL    HW2 1770   2.942   2.902   1.280
  572SOL     OW 1771   3.581   3.705   4.908
  572SOL    HW1 1772   3.486   3.702   4.913
  572SOL    HW2 1773   3.600   3.732   4.818
  573SOL     OW 1774   0.065   2.558   1.155
  573SOL    HW1 1775   0.150   2.527   1.185
  573SOL    HW2 1776   0.083   2.642   1.112
  574SOL     OW 1777   1.995   3.834   1.236
  574SOL    HW1 1778   1.984   3.792   1.321
  574SOL    HW2 1779   2.086   3.865   1.236
  575SOL     OW 1780   3.480   3.284   4.863
  575SOL    HW1 1781   3.553   3.236   4.902
  575SOL    HW2 1782   3.425   3.308   4.937
  576SOL     OW 1783   2.214   1.053   4.350
  576SOL    HW1 1784   2.132   1.063   4.398
  576SOL    HW2 1785   2.282   1.086   4.409
  577SOL     OW 1786   3.411   2.382   3.445
  577SOL    HW1 1787   3.361   2.442   3.389
  577SOL    HW2 1788   3.354   2.366   3.520
  578SOL     OW 1789   2.175   3.473   0.776
  578SOL    HW1 1790   2.132   3.484   0.861
  578SOL    HW2 1791   2.154   3.553   0.727
  579SOL     OW 1792   3.688   3.489   3.748
  579SOL    HW1 1793   3.675   3.564   3.689
  579SOL    HW2 1794   3.682   3.527   3.836
  580SOL     OW 1795   0.077   4.215   3.636
  580SOL    HW1 1796   0.047   4.128   3.609
  580SOL    HW2 1797   0.142   4.198   3.704
  581SOL     OW 1798   0.042   0.144   2.365
  581SOL    HW1 1799   0.053   0.239   2.360
  581SOL    HW2 1800   4.916   0.131   2.387
  582SOL     OW 1801   1.740   0.614   3.265
  582SOL    HW1 1802   1.819   0.602   3.318
  582SOL    HW2 1803   1.696   0.689   3.305
  583SOL     OW 1804   0.815   1.791   0.852
  583SOL    HW1 1805   0.849   1.876   0.881
  583SOL    HW2 1806   0.837   1.787   0.759
  584SOL     OW 1807   0.298   4.551   0.924
  584SOL    HW1 1808   0.221   4.559   0.980
  584SOL    HW2 1809   0.368   4.596   0.972
  585SOL     OW 1810   4.496   0.877   3.770
  585SOL    HW1 1811   4.480   0.938   3.698
  585SOL    HW2 1812   4.429   0.900   3.835
  586SOL     OW 1813   4.558   4.396   1.733
  586SOL    HW1 1814   4.477   4.370   1.777
  586SOL    HW2 1815   4.577   4.325   1.672
  587SOL     OW 1816   2.331   4.819   1.006
  587SOL    HW1 1817   2.274   4.832   1.082
  587SOL    HW2 1818   2.272   4.820   0.931
  588SOL     OW 1819   0.758   1.231   3.000
  588SOL    HW1 1820   0.672   1.265   2.977
  588SOL    HW2 1821   0.809   1.237   2.919
  589SOL     OW 1822   3.623   0.874   3.207
  589SOL    HW1 1823   3.696   0.818   3.181
  589SOL    HW2 1824   3.657   0.963   3.197
  590SOL     OW 1825   4.961   3.031   2.063
  590SOL    HW1 1826   4.868   3.029   2.041
  590SOL    HW2 1827   0.034   2.966   2.005
  591SOL     OW 1828   4.302   0.036   0.204
  591SOL    HW1 1829   4.346   0.031   0.119
  591SOL    HW2 1830   4.280   0.128   0.214
  592SOL     OW 1831   4.750   4.018   2.555
  592SOL    HW1 1832   4.821   4.082   2.566
  592SOL    HW2 1833   4.788   3.935   2.581
  593SOL     OW 1834   2.839   0.938   0.810
  593SOL    HW1 1835   2.868   1.026   0.787
  593SOL    HW2 1836   2.776   0.915   0.742
  594SOL     OW 1837   2.324   4.286   3.337
  594SOL    HW1 1838   2.357   4.207   3.379
  594SOL    HW2 1839   2.239   4.260   3.302
  595SOL     OW 1840   0.322   1.000   3.440
  595SOL    HW1 1841   0.383   0.971   3.508
  595SOL    HW2 1842   0.245   0.944   3.452
  596SOL     OW 1843   1.534   0.679   4.817
  596SOL    HW1 1844   1.565   0.614   4.881
  596SOL    HW2 1845   1.580   0.655   4.736
  597SOL     OW 1846   0.948   4.617   4.580
  597SOL    HW1 1847   0.997   4.699   4.575
  597SOL    HW2 1848   0.931   4.604   4.673
  598SOL     OW 1849   0.108   4.912   0.593
  598SOL    HW1 1850   0.162   4.858   0.651
  598SOL    HW2 1851   0.086   0.023   0.646
  599SOL     OW 1852   0.722   0.328   3.489
  599SOL    HW1 1853   0.716   0.373   3.405
  599SOL    HW2 1854   0.796   0.370   3.533
  600SOL     OW 1855   1.143   0.409   3.224
  600SOL    HW1 1856   1.218   0.374   3.176
  600SOL    HW2 1857   1.067   0.385   3.171
  601SOL     OW 1858   4.185   4.104   4.176
  601SOL    HW1 1859   4.249   4.034   4.165
  601SOL    HW2 1860   4.236   4.179   4.206
  602SOL     OW 1861   3.435   2.178   1.288
  602SOL    HW1 1862   3.502   2.166   1.355
  602SOL    HW2 1863   3.372   2.239   1.329
  603SOL     OW 1864   3.685   0.042   0.899
  603SOL    HW1 1865   3.621   0.066   0.965
  603SOL    HW2 1866   3.750   4.956   0.946
  604SOL     OW 1867   4.778   1.797   2.526
  604SOL    HW1 1868   4.700   1.810   2.473
  604SOL    HW2 1869   4.847   1.847   2.482
  605SOL     OW 1870   4.192   4.019   3.466
  605SOL    HW1 1871   4.214   3.935   3.426
  605SOL    HW2 1872   4.099   4.032   3.447
  606SOL     OW 1873   0.402   2.669   3.134
  606SOL    HW1 1874   0.408   2.710   3.047
  606SOL    HW2 1875   0.432   2.737   3.194
  607SOL     OW 1876   1.055   2.626   3.924
  607SOL    HW1 1877   0.983   2.683   3.951
  607SOL    HW2 1878   1.028   2.538   3.954
  608SOL     OW 1879   0.745   2.988   1.670
  608SOL    HW1 1880   0.810   2.977   1.600
  608SOL    HW2 1881   0.796   2.993   1.750
  609SOL     OW 1882   1.737   3.185   1.575
  609SOL    HW1 1883   1.808   3.246   1.555
  609SOL    HW2 1884   1.728   3.132   1.496
  610SOL     OW 1885   4.406   1.536   4.067
  610SOL    HW1 1886   4.401   1.447   4.103
  610SOL    HW2 1887   4.360   1.590   4.132
  611SOL     OW 1888   4.752   4.475   1.909
  611SOL    HW1 1889   4.676   4.488   1.965
  611SOL    HW2 1890   4.716   4.449   1.824
  612SOL     OW 1891   2.866   2.079   1.137
  612SOL    HW1 1892   2.862   2.149   1.072
  612SOL    HW2 1893   2.945   2.031   1.116
  613SOL     OW 1894   4.273   4.347   4.352
  613SOL    HW1 1895   4.339   4.351   4.283
  613SOL    HW2 1896   4.301   4.274   4.407
  614SOL     OW 1897   0.261   3.828   4.541
  614SOL    HW1 1898   0.188   3.885   4.519
  614SOL    HW2 1899   0.281   3.782   4.459
  615SOL     OW 1900   0.148   2.554   1.916
  615SOL    HW1 1901   0.083   2.500   1.961
  615SOL    HW2 1902   0.232   2.519   1.943
  616SOL     OW 1903   0.836   2.422   3.875
  616SOL    HW1 1904   0.789   2.491   3.829
  616SOL    HW2 1905   0.844   2.453   3.965
  617SOL     OW 1906   0.142   1.963   0.896
  617SOL    HW1 1907   0.125   2.039   0.841
  617SOL    HW2 1908   0.236   1.949   0.888
  618SOL     OW 1909   1.943   1.571   0.212
  618SOL    HW1 1910   2.025   1.590   0.166
  618SOL    HW2 1911   1.904   1.499   0.163
  619SOL     OW 1912   1.404   1.509   3.383
  619SOL    HW1 1913   1.464   1.441   3.412
  619SOL    HW2 1914   1.447   1.592   3.406
  620SOL     OW 1915   0.751   3.018   4.947
  620SOL    HW1 1916   0.748   3.020   4.851
  620SOL    HW2 1917   0.751   3.111   0.006
  621SOL     OW 1918   1.914   1.720   2.583
  621SOL    HW1 1919   1.859   1.756   2.652
  621SOL    HW2 1920   1.875   1.753   2.502
  622SOL     OW 1921   0.336   4.762   2.034
  622SOL    HW1 1922   0.247   4.797   2.034
  622SOL    HW2 1923   0.329   4.681   2.085
  623SOL     OW 1924   1.557   4.194   2.701
  623SOL    HW1 1925   1.541   4.142   2.779
  623SOL    HW2 1926   1.541   4.284   2.728
  624SOL     OW 1927   4.757   1.669   0.063
  624SOL    HW1 1928   4.743   1.629   4.943
  624SOL    HW2 1929   4.830   1.730   0.050
  625SOL     OW 1930   1.283   2.762   0.854
  625SOL    HW1 1931   1.297   2.781   0.947
  625SOL    HW2 1932   1.270   2.667   0.852
  626SOL     OW 1933   1.847   0.690   0.444
  626SOL    HW1 1934   1.783   0.647   0.500
  626SOL    HW2 1935   1.859   0.777   0.482
  627SOL     OW 1936   4.609   4.268   2.255
  627SOL    HW1 1937   4.586   4.182   2.220
  627SOL    HW2 1938   4.620   4.253   2.349
  628SOL     OW 1939   1.408   3.606   3.113
  628SOL    HW1 1940   1.422   3.657   3.193
  628SOL    HW2 1941   1.316   3.622   3.090
  629SOL     OW 1942   2.282   3.331   4.166
  629SOL    HW1 1943   2.211   3.267   4.160
  629SOL    HW2 1944   2.255   3.390   4.237
  630SOL     OW 1945   4.191   2.055   2.135
  630SOL    HW1 1946   4.141   1.973   2.138
  630SOL    HW2 1947   4.193   2.084   2.226
  631SOL     OW 1948   4.545   4.200   3.089
  631SOL    HW1 1949   4.622   4.246   3.056
  631SOL    HW2 1950   4.479   4.269   3.099
  632SOL     OW 1951   0.364   3.157   2.094
  632SOL    HW1 1952   0.314   3.136   2.173
  632SOL    HW2 1953   0.412   3.237   2.116
  633SOL     OW 1954   3.233   0.694   0.660
  633SOL    HW1 1955   3.315   0.743   0.668
  633SOL    HW2 1956   3.168   0.759   0.634
  634SOL     OW 1957   4.050   3.473   3.124
  634SOL    HW1 1958   4.028   3.518   3.206
  634SOL    HW2 1959   3.973   3.422   3.103
  635SOL     OW 1960   0.207   2.421   3.947
  635SOL    HW1 1961   0.267   2.384   4.011
  635SOL    HW2 1962   0.224   2.372   3.867
  636SOL     OW 1963   0.647   3.694   4.731
  636SOL    HW1 1964   0.614   3.694   4.641
  636SOL    HW2 1965   0.701   3.615   4.736
  637SOL     OW 1966   2.503   3.980   2.305
  637SOL    HW1 1967   2.460   4.037   2.241
  637SOL    HW2 1968   2.590   4.018   2.315
  638SOL     OW 1969   0.081   2.988   0.902
  638SOL    HW1 1970   0.102   3.060   0.843
  638SOL    HW2 1971   4.952   2.987   0.906
  639SOL     OW 1972   2.809   1.812   1.649
  639SOL    HW1 1973   2.723   1.813   1.607
  639SOL    HW2 1974   2.871   1.826   1.578
  640SOL     OW 1975   0.977   1.080   3.346
  640SOL    HW1 1976   1.040   1.015   3.313
  640SOL    HW2 1977   1.011   1.104   3.432
  641SOL     OW 1978   0.406   2.229   2.920
  641SOL    HW1 1979   0.321   2.201   2.955
  641SOL    HW2 1980   0.463   2.152   2.932
  642SOL     OW 1981   2.155   3.059   4.934
  642SOL    HW1 1982   2.140   3.096   4.847
  642SOL    HW2 1983   2.232   3.003   4.923
  643SOL     OW 1984   1.727   3.154   1.993
  643SOL    HW1 1985   1.710   3.113   1.908
  643SOL    HW2 1986   1.658   3.122   2.050
  644SOL     OW 1987   0.999   1.486   3.979
  644SOL    HW1 1988   0.926   1.548   3.977
  644SOL    HW2 1989   1.015   1.466   3.887
  645SOL     OW 1990   0.937   3.365   2.063
  645SOL    HW1 1991   0.930   3.421   1.985
  645SOL    HW2 1992   0.893   3.283   2.038
  646SOL     OW 1993   4.292   3.365   0.235
  646SOL    HW1 1994   4.368   3.352   0.179
  646SOL    HW2 1995   4.301   3.455   0.268
  647SOL     OW 1996   4.355   0.744   1.259
  647SOL    HW1 1997   4.393   0.729   1.345
  647SOL    HW2 1998   4.266   0.711   1.266
  648SOL     OW 1999   0.433   0.563   0.045
  648SOL    HW1 2000   0.500   0.577   4.945
  648SOL    HW2 2001   0.453   0.626   0.114
  649SOL     OW 2002   1.081   1.544   4.244
  649SOL    HW1 2003   1.053   1.495   4.166
  649SOL    HW2 2004   1.177   1.539   4.242
  650SOL     OW 2005   0.679   4.792   2.671
  650SOL    HW1 2006   0.666   4.697   2.674
  650SOL    HW2 2007   0.600   4.825   2.627
  651SOL     OW 2008   0.713   1.715   1.803
  651SOL    HW1 2009   0.716   1.621   1.785
  651SOL    HW2 2010   0.757   1.756   1.729
  652SOL     OW 2011   4.004   3.613   0.102
  652SOL    HW1 2012   3.937   3.599   0.169
  652SOL    HW2 2013   3.960   3.666   0.035
  653SOL     OW 2014   2.003   1.561   1.309
  653SOL    HW1 2015   2.016   1.635   1.250
  653SOL    HW2 2016   1.976   1.602   1.392
  654SOL     OW 2017   3.395   2.203   4.770
  654SOL    HW1 2018   3.433   2.286   4.799
  654SOL    HW2 2019   3.368   2.160   4.851
  655SOL     OW 2020   3.748   4.749   2.303
  655SOL    HW1 2021   3.772   4.837   2.276
  655SOL    HW2 2022   3.801   4.732   2.381
  656SOL     OW 2023   0.353   0.096   0.156
  656SOL    HW1 2024   0.335   0.026   0.093
  656SOL    HW2 2025   0.283   0.088   0.221
  657SOL     OW 2026   3.146   0.920   1.586
  657SOL    HW1 2027   3.087   0.983   1.627
  657SOL    HW2 2028   3.098   0.890   1.509
  658SOL     OW 2029   1.917   4.219   0.965
  658SOL    HW1 2030   1.921   4.293   1.025
  658SOL    HW2 2031   1.931   4.257   0.878
  659SOL     OW 2032   1.191   2.927   3.312
  659SOL    HW1 2033   1.242   2.847   3.309
  659SOL    HW2 2034   1.204   2.962   3.399
  660SOL     OW 2035   3.960   3.753   2.618
  660SOL    HW1 2036   4.021   3.698   2.568
  660SOL    HW2 2037   3.885   3.764   2.559
  661SOL     OW 2038   2.437   3.122   2.230
  661SOL    HW1 2039   2.407   3.172   2.154
  661SOL    HW2 2040   2.474   3.187   2.289
  662SOL     OW 2041   3.803   3.763   0.366
  662SOL    HW1 2042   3.743   3.769   0.441
  662SOL    HW2 2043   3.758   3.706   0.304
  663SOL     OW 2044   3.810   3.433   4.907
  663SOL    HW1 2045   3.857   3.432   4.823
  663SOL    HW2 2046   3.745   3.364   4.899
  664SOL     OW 2047   4.777   2.031   1.756
  664SOL    HW1 2048   4.737   2.053   1.840
  664SOL    HW2 2049   4.869   2.058   1.766
  665SOL     OW 2050   0.677   4.724   2.276
  665SOL    HW1 2051   0.768   4.750   2.288
  665SOL    HW2 2052   0.665   4.650   2.335
  666SOL     OW 2053   1.434   4.601   1.065
  666SOL    HW1 2054   1.479   4.532   1.114
  666SOL    HW2 2055   1.417   4.563   0.979
  667SOL     OW 2056   2.760   2.487   3.466
  667SOL    HW1 2057   2.780   2.580   3.454
  667SOL    HW2 2058   2.689   2.486   3.529
  668SOL     OW 2059   3.974   0.763   3.921
  668SOL    HW1 2060   3.906   0.778   3.988
  668SOL    HW2 2061   3.945   0.815   3.846
  669SOL     OW 2062   2.369   0.877   2.147
  669SOL    HW1 2063   2.464   0.879   2.134
  669SOL    HW2 2064   2.356   0.814   2.218
  670SOL     OW 2065   0.035   1.896   2.412
  670SOL    HW1 2066   0.060   1.984   2.440
  670SOL    HW2 2067   0.115   1.857   2.377
  671SOL     OW 2068   2.985   2.748   3.072
  671SOL    HW1 2069   3.065   2.709   3.037
  671SOL    HW2 2070   2.947   2.793   2.997
  672SOL     OW 2071   4.616   2.757   2.926
  672SOL    HW1 2072   4.521   2.765   2.933
  672SOL    HW2 2073   4.632   2.664   2.911
  673SOL     OW 2074   3.914   0.368   0.349
  673SOL    HW1 2075   3.945   0.416   0.273
  673SOL    HW2 2076   3.965   0.402   0.422
  674SOL     OW 2077   2.664   1.919   1.082
  674SOL    HW1 2078   2.689   1.830   1.107
  674SOL    HW2 2079   2.746   1.962   1.058
  675SOL     OW 2080   2.426   4.336   0.431
  675SOL    HW1 2081   2.475   4.317   0.511
  675SOL    HW2 2082   2.480   4.300   0.361
  676SOL     OW 2083   4.087   2.464   4.776
  676SOL    HW1 2084   4.162   2.405   4.763
  676SOL    HW2 2085   4.044   2.467   4.691
  677SOL     OW 2086   3.695   2.060   0.767
  677SOL    HW1 2087   3.759   2.094   0.704
  677SOL    HW2 2088   3.625   2.126   0.766
  678SOL     OW 2089   3.386   3.443   2.518
  678SOL    HW1 2090   3.330   3.468   2.445
  678SOL    HW2 2091   3.471   3.482   2.499
  679SOL     OW 2092   2.021   4.573   3.390
  679SOL    HW1 2093   2.115   4.576   3.404
  679SOL    HW2 2094   2.007   4.500   3.330
  680SOL     OW 2095   2.787   4.763   4.208
  680SOL    HW1 2096   2.758   4.853   4.226
  680SOL    HW2 2097   2.708   4.719   4.175
  681SOL     OW 2098   1.707   4.144   3.713
  681SOL    HW1 2099   1.641   4.185   3.768
  681SOL    HW2 2100   1.748   4.078   3.769
  682SOL     OW 2101   0.976   0.582   3.339
  682SOL    HW1 2102   1.061   0.541   3.322
  682SOL    HW2 2103   0.969   0.650   3.272
  683SOL     OW 2104   0.646   3.623   2.782
  683SOL    HW1 2105   0.735   3.644   2.812
  683SOL    HW2 2106   0.656   3.541   2.734
  684SOL     OW 2107   2.846   3.744   3.487
  684SOL    HW1 2108   2.942   3.737   3.494
  684SOL    HW2 2109   2.830   3.837   3.470
  685SOL     OW 2110   4.532   2.720   4.547
  685SOL    HW1 2111   4.447   2.717   4.591
  685SOL    HW2 2112   4.564   2.808   4.563
  686SOL     OW 2113   4.920   0.213   1.733
  686SOL    HW1 2114   4.926   0.203   1.638
  686SOL    HW2 2115   0.013   0.147   1.768
  687SOL     OW 2116   0.302   2.663   3.871
  687SOL    HW1 2117   0.268   2.577   3.896
  687SOL    HW2 2118   0.274   2.674   3.780
  688SOL     OW 2119   4.756   1.345   1.586
  688SOL    HW1 2120   4.851   1.341   1.588
  688SOL    HW2 2121   4.735   1.430   1.548
  689SOL     OW 2122   4.883   1.680   3.364
  689SOL    HW1 2123   4.828   1.701   3.440
  689SOL    HW2 2124   0.006   1.686   3.397
  690SOL     OW 2125   0.129   1.674   4.759
  690SOL    HW1 2126   0.185   1.693   4.683
  690SOL    HW2 2127   0.145   1.746   4.819
  691SOL     OW 2128   3.949   1.478   1.314
  691SOL    HW1 2129   3.968   1.422   1.238
  691SOL    HW2 2130   3.985   1.563   1.290
  692SOL     OW 2131   4.831   0.960   3.472
  692SOL    HW1 2132   4.778   0.940   3.395
  692SOL    HW2 2133   4.854   1.053   3.461
  693SOL     OW 2134   0.335   2.551   1.266
  693SOL    HW1 2135   0.402   2.539   1.334
  693SOL    HW2 2136   0.376   2.608   1.202
  694SOL     OW 2137   3.567   1.118   0.191
  694SOL    HW1 2138   3.607   1.039   0.227
  694SOL    HW2 2139   3.641   1.170   0.158
  695SOL     OW 2140   3.997   4.675   3.769
  695SOL    HW1 2141   3.933   4.609   3.796
  695SOL    HW2 2142   3.948   4.757   3.767
  696SOL     OW 2143   2.861   1.578   2.096
  696SOL    HW1 2144   2.869   1.535   2.181
  696SOL    HW2 2145   2.951   1.590   2.065
  697SOL     OW 2146   4.418   1.773   2.711
  697SOL    HW1 2147   4.482   1.745   2.777
  697SOL    HW2 2148   4.457   1.849   2.669
  698SOL     OW 2149   0.004   1.445   4.647
  698SOL    HW1 2150   0.032   1.536   4.658
  698SOL    HW2 2151   0.050   1.397   4.715
  699SOL     OW 2152   1.155   3.022   0.434
  699SOL    HW1 2153   1.149   3.001   0.527
  699SOL    HW2 2154   1.244   2.998   0.409
  700SOL     OW 2155   1.313   3.359   3.217
  700SOL    HW1 2156   1.348   3.424   3.156
  700SOL    HW2 2157   1.374   3.359   3.290
  701SOL     OW 2158   4.289   3.247   3.669
  701SOL    HW1 2159   4.361   3.240   3.731
  701SOL    HW2 2160   4.280   3.341   3.654
  702SOL     OW 2161   4.451   0.763   4.475
  702SOL    HW1 2162   4.490   0.828   4.416
  702SOL    HW2 2163   4.523   0.739   4.534
  703SOL     OW 2164   1.522   0.503   1.700
  703SOL    HW1 2165   1.465   0.558   1.754
  703SOL    HW2 2166   1.507   0.533   1.611
  704SOL     OW 2167   4.539   2.381   3.662
  704SOL    HW1 2168   4.458   2.430   3.649
  704SOL    HW2 2169   4.590   2.396   3.583
  705SOL     OW 2170   2.635   4.588   1.520
  705SOL    HW1 2171   2.575   4.549   1.583
  705SOL    HW2 2172   2.610   4.550   1.436
  706SOL     OW 2173   4.861   0.116   3.403
  706SOL    HW1 2174   4.896   0.161   3.481
  706SOL    HW2 2175   4.774   0.087   3.430
  707SOL     OW 2176   1.343   0.991   4.550
  707SOL    HW1 2177   1.264   1.046   4.547
  707SOL    HW2 2178   1.359   0.979   4.644
  708SOL     OW 2179   4.829   0.015   4.478
  708SOL    HW1 2180   4.840   0.024   4.383
  708SOL    HW2 2181   4.831   4.887   4.493
  709SOL     OW 2182   4.266   2.078   3.983
  709SOL    HW1 2183   4.358   2.088   3.959
  709SOL    HW2 2184   4.248   1.985   3.973
  710SOL     OW 2185   4.768   3.889   4.007
  710SOL    HW1 2186   4.679   3.858   3.992
  710SOL    HW2 2187   4.823   3.812   3.990
  711SOL     OW 2188   2.021   3.979   0.497
  711SOL    HW1 2189   2.073   4.057   0.476
  711SOL    HW2 2190   2.027   3.924   0.419
  712SOL     OW 2191   3.720   2.648   2.909
  712SOL    HW1 2192   3.637   2.652   2.861
  712SOL    HW2 2193   3.786   2.667   2.843
  713SOL     OW 2194   0.212   1.871   4.029
  713SOL    HW1 2195   0.138   1.912   4.073
  713SOL    HW2 2196   0.287   1.891   4.085
  714SOL     OW 2197   0.933   4.256   2.381
  714SOL    HW1 2198   1.006   4.251   2.319
  714SOL    HW2 2199   0.866   4.198   2.345
  715SOL     OW 2200   0.841   2.727   0.336
  715SOL    HW1 2201   0.813   2.785   0.265
  715SOL    HW2 2202   0.764   2.720   0.393
  716SOL     OW 2203   1.741   0.268   4.214
  716SOL    HW1 2204   1.708   0.264   4.304
  716SOL    HW2 2205   1.800   0.193   4.207
  717SOL     OW 2206   3.339   4.313   1.374
  717SOL    HW1 2207   3.259   4.344   1.416
  717SOL    HW2 2208   3.311   4.280   1.289
  718SOL     OW 2209   0.129   1.455   2.569
  718SOL    HW1 2210   0.215   1.473   2.530
  718SOL    HW2 2211   0.077   1.531   2.545
  719SOL     OW 2212   3.316   2.922   3.513
  719SOL    HW1 2213   3.299   3.013   3.538
  719SOL    HW2 2214   3.265   2.870   3.576
  720SOL     OW 2215   2.847   4.772   0.078
  720SOL    HW1 2216   2.901   4.693   0.075
  720SOL    HW2 2217   2.910   4.844   0.072
  721SOL     OW 2218   4.555   1.307   0.963
  721SOL    HW1 2219   4.611   1.363   1.017
  721SOL    HW2 2220   4.497   1.263   1.025
  722SOL     OW 2221   1.746   4.793   2.852
  722SOL    HW1 2222   1.681   4.845   2.805
  722SOL    HW2 2223   1.819   4.852   2.867
  723SOL     OW 2224   1.288   2.880   1.113
  723SOL    HW1 2225   1.216   2.942   1.126
  723SOL    HW2 2226   1.342   2.890   1.191
  724SOL     OW 2227   2.100   4.603   1.550
  724SOL    HW1 2228   2.166   4.538   1.528
  724SOL    HW2 2229   2.023   4.552   1.576
  725SOL     OW 2230   0.406   4.810   3.436
  725SOL    HW1 2231   0.326   4.862   3.442
  725SOL    HW2 2232   0.432   4.815   3.344
  726SOL     OW 2233   2.618   2.445   3.928
  726SOL    HW1 2234   2.686   2.484   3.872
  726SOL    HW2 2235   2.643   2.469   4.017
  727SOL     OW 2236   1.599   0.589   0.642
  727SOL    HW1 2237   1.525   0.550   0.688
  727SOL    HW2 2238   1.565   0.670   0.604
  728SOL     OW 2239   2.783   1.314   3.293
  728SOL    HW1 2240   2.862   1.324   3.345
  728SOL    HW2 2241   2.736   1.242   3.335
  729SOL     OW 2242   0.936   4.889   3.911
  729SOL    HW1 2243   1.011   4.948   3.910
  729SOL    HW2 2244   0.915   4.878   4.004
  730SOL     OW 2245   4.038   4.809   1.030
  730SOL    HW1 2246   3.993   4.831   0.948
  730SOL    HW2 2247   4.124   4.778   1.003
  731SOL     OW 2248   0.502   2.546   1.461
  731SOL    HW1 2249   0.554   2.488   1.405
  731SOL    HW2 2250   0.566   2.607   1.498
  732SOL     OW 2251   0.309   4.952   2.951
  732SOL    HW1 2252   0.242   4.948   2.882
  732SOL    HW2 2253   0.329   4.861   2.971
  733SOL     OW 2254   3.446   0.972   1.799
  733SOL    HW1 2255   3.424   0.919   1.723
  733SOL    HW2 2256   3.376   0.955   1.861
  734SOL     OW 2257   3.871   1.938   1.242
  734SOL    HW1 2258   3.905   1.896   1.164
  734SOL    HW2 2259   3.949   1.964   1.292
  735SOL     OW 2260   0.987   3.599   2.202
  735SOL    HW1 2261   0.985   3.575   2.295
  735SOL    HW2 2262   0.947   3.525   2.157
  736SOL     OW 2263   1.348   4.121   4.836
  736SOL    HW1 2264   1.320   4.153   4.750
  736SOL    HW2 2265   1.347   4.026   4.828
  737SOL     OW 2266   4.476   3.699   3.517
  737SOL    HW1 2267   4.559   3.653   3.528
  737SOL    HW2 2268   4.493   3.788   3.548
  738SOL     OW 2269   0.844   1.291   4.108
  738SOL    HW1 2270   0.876   1.378   4.083
  738SOL    HW2 2271   0.753   1.306   4.132
  739SOL     OW 2272   1.696   4.179   1.427
  739SOL    HW1 2273   1.657   4.097   1.396
  739SOL    HW2 2274   1.707   4.165   1.521
  740SOL     OW 2275   1.379   0.269   3.201
  740SOL    HW1 2276   1.406   0.177   3.198
  740SOL    HW2 2277   1.430   0.306   3.273
  741SOL     OW 2278   0.112   4.860   4.110
  741SOL    HW1 2279   0.169   4.937   4.112
  741SOL    HW2 2280   0.154   4.797   4.170
  742SOL     OW 2281   2.329   1.432   4.151
  742SOL    HW1 2282   2.370   1.393   4.229
  742SOL    HW2 2283   2.288   1.512   4.184
  743SOL     OW 2284   1.740   3.378   3.474
  743SOL    HW1 2285   1.680   3.308   3.450
  743SOL    HW2 2286   1.824   3.352   3.436
  744SOL     OW 2287   4.100   2.791   4.221
  744SOL    HW1 2288   4.174   2.814   4.165
  744SOL    HW2 2289   4.065   2.710   4.182
  745SOL     OW 2290   3.632   4.801   3.118
  745SOL    HW1 2291   3.554   4.780   3.169
  745SOL    HW2 2292   3.688   4.849   3.180
  746SOL     OW 2293   2.406   3.698   4.231
  746SOL    HW1 2294   2.354   3.742   4.298
  746SOL    HW2 2295   2.496   3.700   4.265
  747SOL     OW 2296   1.930   0.267   2.965
  747SOL    HW1 2297   1.866   0.246   2.898
  747SOL    HW2 2298   1.882   0.322   3.027
  748SOL     OW 2299   2.533   3.339   4.869
  748SOL    HW1 2300   2.478   3.375   4.800
  748SOL    HW2 2301   2.609   3.303   4.823
  749SOL     OW 2302   0.757   2.014   4.623
  749SOL    HW1 2303   0.708   2.088   4.587
  749SOL    HW2 2304   0.758   2.028   4.717
  750SOL     OW 2305   0.703   0.640   3.047
  750SOL    HW1 2306   0.687   0.731   3.022
  750SOL    HW2 2307   0.627   0.592   3.014
  751SOL     OW 2308   1.511   3.562   4.851
  751SOL    HW1 2309   1.544   3.571   4.762
  751SOL    HW2 2310   1.528   3.471   4.874
  752SOL     OW 2311   0.872   1.012   1.554
  752SOL    HW1 2312   0.890   1.055   1.638
  752SOL    HW2 2313   0.915   1.067   1.489
  753SOL     OW 2314   4.295   1.096   3.910
  753SOL    HW1 2315   4.290   1.000   3.905
  753SOL    HW2 2316   4.295   1.125   3.819
  754SOL     OW 2317   2.373   1.611   1.355
  754SOL    HW1 2318   2.309   1.571   1.297
  754SOL    HW2 2319   2.320   1.652   1.424
  755SOL     OW 2320   2.480   0.923   4.041
  755SOL    HW1 2321   2.394   0.964   4.053
  755SOL    HW2 2322   2.543   0.994   4.054
  756SOL     OW 2323   3.466   0.459   0.749
  756SOL    HW1 2324   3.396   0.507   0.704
  756SOL    HW2 2325   3.542   0.517   0.744
  757SOL     OW 2326   1.681   3.487   2.252
  757SOL    HW1 2327   1.731   3.519   2.177
  757SOL    HW2 2328   1.745   3.483   2.323
  758SOL     OW 2329   1.035   3.817   2.076
  758SOL    HW1 2330   1.016   3.731   2.113
  758SOL    HW2 2331   0.950   3.862   2.077
  759SOL     OW 2332   3.384   3.690   0.236
  759SOL    HW1 2333   3.418   3.778   0.252
  759SOL    HW2 2334   3.290   3.698   0.253
  760SOL     OW 2335   2.580   4.603   4.052
  760SOL    HW1 2336   2.557   4.537   4.118
  760SOL    HW2 2337   2.622   4.554   3.982
  761SOL     OW 2338   3.534   4.190   4.725
  761SOL    HW1 2339   3.613   4.173   4.673
  761SOL    HW2 2340   3.512   4.282   4.705
  762SOL     OW 2341   3.793   1.294   0.386
  762SOL    HW1 2342   3.792   1.223   0.450
  762SOL    HW2 2343   3.873   1.281   0.336
  763SOL     OW 2344   0.101   0.046   2.755
  763SOL    HW1 2345   0.055   4.946   2.704
  763SOL    HW2 2346   0.102   0.123   2.698
  764SOL     OW 2347   4.280   2.311   3.282
  764SOL    HW1 2348   4.319   2.273   3.203
  764SOL    HW2 2349   4.191   2.335   3.256
  765SOL     OW 2350   2.684   3.295   0.202
  765SOL    HW1 2351   2.727   3.380   0.202
  765SOL    HW2 2352   2.691   3.264   0.293
  766SOL     OW 2353   4.664   2.519   3.450
  766SOL    HW1 2354   4.752   2.553   3.467
  766SOL    HW2 2355   4.658   2.514   3.355
  767SOL     OW 2356   3.744   4.230   0.378
  767SOL    HW1 2357   3.788   4.310   0.350
  767SOL    HW2 2358   3.739   4.237   0.473
  768SOL     OW 2359   1.078   0.731   3.755
  768SOL    HW1 2360   1.135   0.803   3.783
  768SOL    HW2 2361   1.050   0.756   3.667
  769SOL     OW 2362   0.651   4.272   0.223
  769SOL    HW1 2363   0.573   4.255   0.171
  769SOL    HW2 2364   0.652   4.203   0.289
  770SOL     OW 2365   4.162   4.092   0.044
  770SOL    HW1 2366   4.239   4.040   0.064
  770SOL    HW2 2367   4.119   4.046   4.939
  771SOL     OW 2368   3.061   0.497   2.954
  771SOL    HW1 2369   3.104   0.411   2.946
  771SOL    HW2 2370   2.975   0.484   2.915
  772SOL     OW 2371   3.982   1.323   4.663
  772SOL    HW1 2372   4.031   1.243   4.682
  772SOL    HW2 2373   4.048   1.392   4.667
  773SOL     OW 2374   2.810   3.766   0.562
  773SOL    HW1 2375   2.763   3.685   0.582
  773SOL    HW2 2376   2.873   3.741   0.493
  774SOL     OW 2377   2.389   4.760   1.394
  774SOL    HW1 2378   2.468   4.810   1.411
  774SOL    HW2 2379   2.420   4.681   1.348
  775SOL     OW 2380   0.581   4.807   2.947
  775SOL    HW1 2381   0.638   4.830   2.874
  775SOL    HW2 2382   0.498   4.783   2.905
  776SOL     OW 2383   3.783   4.234   4.351
  776SOL    HW1 2384   3.758   4.142   4.357
  776SOL    HW2 2385   3.759   4.259   4.261
  777SOL     OW 2386   1.374   1.922   1.195
  777SOL    HW1 2387   1.406   1.843   1.239
  777SOL    HW2 2388   1.451   1.958   1.151
  778SOL     OW 2389   3.127   0.640   3.202
  778SOL    HW1 2390   3.130   0.580   3.128
  778SOL    HW2 2391   3.217   0.675   3.208
  779SOL     OW 2392   4.202   1.813   3.892
  779SOL    HW1 2393   4.122   1.829   3.842
  779SOL    HW2 2394   4.236   1.730   3.857
  780SOL     OW 2395   2.472   1.295   0.868
  780SOL    HW1 2396   2.504   1.309   0.779
  780SOL    HW2 2397   2.377   1.310   0.861
  781SOL     OW 2398   2.361   2.707   4.939
  781SOL    HW1 2399   2.401   2.778   0.025
  781SOL    HW2 2400   2.339   2.748   4.856
  782SOL     OW 2401   4.543   3.138   2.832
  782SOL    HW1 2402   4.534   3.090   2.749
  782SOL    HW2 2403   4.573   3.225   2.806
  783SOL     OW 2404   4.513   3.296   3.123
  783SOL    HW1 2405   4.608   3.303   3.127
  783SOL    HW2 2406   4.496   3.245   3.043
  784SOL     OW 2407   0.915   0.068   0.893
  784SOL    HW1 2408   0.968   0.106   0.823
  784SOL    HW2 2409   0.886   0.143   0.945
  785SOL     OW 2410   2.606   3.042   3.555
  785SOL    HW1 2411   2.670   2.972   3.544
  785SOL    HW2 2412   2.635   3.111   3.496
  786SOL     OW 2413   1.599   4.220   0.034
  786SOL    HW1 2414   1.673   4.214   4.939
  786SOL    HW2 2415   1.522   4.200   4.947
  787SOL     OW 2416   3.695   3.685   3.543
  787SOL    HW1 2417   3.732   3.688   3.454
  787SOL    HW2 2418   3.664   3.774   3.559
  788SOL     OW 2419   4.258   4.164   0.991
  788SOL    HW1 2420   4.237   4.188   0.901
  788SOL    HW2 2421   4.321   4.230   1.019
  789SOL     OW 2422   3.660   0.297   3.559
  789SOL    HW1 2423   3.651   0.385   3.595
  789SOL    HW2 2424   3.577   0.254   3.577
  790SOL     OW 2425   0.362   2.054   2.053
  790SOL    HW1 2426   0.414   2.017   1.981
  790SOL    HW2 2427   0.411   2.032   2.132
  791SOL     OW 2428   1.328   2.208   1.238
  791SOL    HW1 2429   1.304   2.199   1.146
  791SOL    HW2 2430   1.356   2.121   1.265
  792SOL     OW 2431   2.030   0.645   1.675
  792SOL    HW1 2432   2.116   0.670   1.711
  792SOL    HW2 2433   2.016   0.556   1.706
  793SOL     OW 2434   2.132   1.733   0.083
  793SOL    HW1 2435   2.203   1.700   0.138
  793SOL    HW2 2436   2.160   1.713   4.960
  794SOL     OW 2437   3.940   2.288   4.944
  794SOL    HW1 2438   3.947   2.347   4.869
  794SOL    HW2 2439   3.856   2.312   0.018
  795SOL     OW 2440   4.219   2.755   4.463
  795SOL    HW1 2441   4.194   2.666   4.487
  795SOL    HW2 2442   4.190   2.764   4.372
  796SOL     OW 2443   4.749   2.584   1.781
  796SOL    HW1 2444   4.802   2.513   1.744
  796SOL    HW2 2445   4.793   2.664   1.754
  797SOL     OW 2446   0.969   2.549   0.064
  797SOL    HW1 2447   1.019   2.475   0.029
  797SOL    HW2 2448   0.967   2.534   0.158
  798SOL     OW 2449   2.025   0.550   1.301
  798SOL    HW1 2450   1.990   0.534   1.213
  798SOL    HW2 2451   2.059   0.466   1.330
  799SOL     OW 2452   0.745   1.447   1.877
  799SOL    HW1 2453   0.837   1.422   1.870
  799SOL    HW2 2454   0.712   1.395   1.951
  800SOL     OW 2455   4.900   3.354   2.691
  800SOL    HW1 2456   4.883   3.261   2.700
  800SOL    HW2 2457   0.028   3.362   2.699
  801SOL     OW 2458   4.895   1.170   2.476
  801SOL    HW1 2459   4.910   1.104   2.544
  801SOL    HW2 2460   4.952   1.243   2.502
  802SOL     OW 2461   4.733   1.020   4.436
  802SOL    HW1 2462   4.755   1.113   4.435
  802SOL    HW2 2463   4.815   0.976   4.415
  803SOL     OW 2464   0.054   2.864   4.298
  803SOL    HW1 2465   4.952   2.856   4.364
  803SOL    HW2 2466   0.079   2.774   4.277
  804SOL     OW 2467   2.264   1.962   2.454
  804SOL    HW1 2468   2.176   1.994   2.432
  804SOL    HW2 2469   2.318   2.041   2.457
  805SOL     OW 2470   1.905   3.849   4.609
  805SOL    HW1 2471   1.831   3.812   4.560
  805SOL    HW2 2472   1.964   3.881   4.541
  806SOL     OW 2473   1.385   3.059   2.348
  806SOL    HW1 2474   1.378   3.130   2.283
  806SOL    HW2 2475   1.331   3.088   2.421
  807SOL     OW 2476   3.768   1.832   1.598
  807SOL    HW1 2477   3.743   1.790   1.680
  807SOL    HW2 2478   3.857   1.801   1.582
  808SOL     OW 2479   1.213   3.371   2.215
  808SOL    HW1 2480   1.177   3.442   2.162
  808SOL    HW2 2481   1.141   3.344   2.272
  809SOL     OW 2482   2.976   0.537   2.502
  809SOL    HW1 2483   2.917   0.601   2.463
  809SOL    HW2 2484   2.918   0.477   2.549
  810SOL     OW 2485   0.422   1.887   4.192
  810SOL    HW1 2486   0.459   1.923   4.273
  810SOL    HW2 2487   0.435   1.793   4.198
  811SOL     OW 2488   1.556   1.903   0.135
  811SOL    HW1 2489   1.640   1.874   0.099
  811SOL    HW2 2490   1.569   1.996   0.153
  812SOL     OW 2491   3.489   4.533   1.250
  812SOL    HW1 2492   3.486   4.540   1.345
  812SOL    HW2 2493   3.468   4.442   1.232
  813SOL     OW 2494   3.122   3.398   0.966
  813SOL    HW1 2495   3.095   3.487   0.985
  813SOL    HW2 2496   3.215   3.395   0.986
  814SOL     OW 2497   4.728   3.650   3.650
  814SOL    HW1 2498   4.778   3.625   3.572
  814SOL    HW2 2499   4.753   3.742   3.666
  815SOL     OW 2500   3.517   0.736   0.342
  815SOL    HW1 2501   3.460   0.773   0.274
  815SOL    HW2 2502   3.467   0.663   0.379
  816SOL     OW 2503   4.478   2.866   1.075
  816SOL    HW1 2504   4.523   2.783   1.065
  816SOL    HW2 2505   4.513   2.921   1.005
  817SOL     OW 2506   3.857   2.586   4.384
  817SOL    HW1 2507   3.925   2.525   4.412
  817SOL    HW2 2508   3.776   2.550   4.419
  818SOL     OW 2509   1.973   1.019   4.496
  818SOL    HW1 2510   1.883   1.027   4.462
  818SOL    HW2 2511   1.980   0.927   4.524
  819SOL     OW 2512   1.441   3.365   0.635
  819SOL    HW1 2513   1.472   3.439   0.687
  819SOL    HW2 2514   1.430   3.401   0.547
  820SOL     OW 2515   1.000   2.805   1.911
  820SOL    HW1 2516   0.926   2.828   1.967
  820SOL    HW2 2517   1.074   2.854   1.948
  821SOL     OW 2518   3.651   4.297   4.090
  821SOL    HW1 2519   3.624   4.270   4.002
  821SOL    HW2 2520   3.625   4.388   4.097
  822SOL     OW 2521   3.996   0.139   3.620
  822SOL    HW1 2522   3.969   0.200   3.688
  822SOL    HW2 2523   4.092   0.146   3.618
  823SOL     OW 2524   0.730   4.485   4.031
  823SOL    HW1 2525   0.747   4.547   3.960
  823SOL    HW2 2526   0.816   4.468   4.070
  824SOL     OW 2527   0.147   1.738   3.153
  824SOL    HW1 2528   0.157   1.816   3.097
  824SOL    HW2 2529   0.060   1.705   3.134
  825SOL     OW 2530   0.726   4.618   1.941
  825SOL    HW1 2531   0.772   4.690   1.983
  825SOL    HW2 2532   0.701   4.560   2.013
  826SOL     OW 2533   3.240   4.234   2.386
  826SOL    HW1 2534   3.154   4.244   2.344
  826SOL    HW2 2535   3.241   4.304   2.452
  827SOL     OW 2536   1.278   3.397   2.891
  827SOL    HW1 2537   1.356   3.405   2.836
  827SOL    HW2 2538   1.272   3.304   2.910
  828SOL     OW 2539   3.306   2.627   4.401
  828SOL    HW1 2540   3.269   2.555   4.349
  828SOL    HW2 2541   3.289   2.602   4.492
  829SOL     OW 2542   0.729   0.504   3.277
  829SOL    HW1 2543   0.817   0.528   3.306
  829SOL    HW2 2544   0.715   0.556   3.197
  830SOL     OW 2545   4.490   4.049   0.764
  830SOL    HW1 2546   4.540   4.115   0.717
  830SOL    HW2 2547   4.555   3.984   0.791
  831SOL     OW 2548   1.426   3.712   2.210
  831SOL    HW1 2549   1.402   3.648   2.277
  831SOL    HW2 2550   1.484   3.773   2.255
  832SOL     OW 2551   1.664   0.926   1.667
  832SOL    HW1 2552   1.737   0.981   1.640
  832SOL    HW2 2553   1.666   0.851   1.607
  833SOL     OW 2554   3.932   4.832   0.786
  833SOL    HW1 2555   3.913   4.745   0.750
  833SOL    HW2 2556   3.988   4.873   0.720
  834SOL     OW 2557   0.977   3.821   3.408
  834SOL    HW1 2558   1.035   3.809   3.483
  834SOL    HW2 2559   1.000   3.906   3.373
  835SOL     OW 2560   0.562   1.993   3.018
  835SOL    HW1 2561   0.629   1.973   2.953
  835SOL    HW2 2562   0.484   1.948   2.987
  836SOL     OW 2563   3.893   3.854   1.275
  836SOL    HW1 2564   3.956   3.902   1.222
  836SOL    HW2 2565   3.839   3.806   1.212
  837SOL     OW 2566   0.580   0.850   1.137
  837SOL    HW1 2567   0.643   0.798   1.088
  837SOL    HW2 2568   0.580   0.812   1.225
  838SOL     OW 2569   0.324   2.488   2.808
  838SOL    HW1 2570   0.394   2.491   2.873
  838SOL    HW2 2571   0.325   2.398   2.775
  839SOL     OW 2572   0.862   3.694   2.925
  839SOL    HW1 2573   0.876   3.788   2.913
  839SOL    HW2 2574   0.950   3.657   2.925
  840SOL     OW 2575   4.289   2.902   4.695
  840SOL    HW1 2576   4.240   2.855   4.763
  840SOL    HW2 2577   4.258   2.865   4.613
  841SOL     OW 2578   3.680   0.584   1.045
  841SOL    HW1 2579   3.737   0.655   1.074
  841SOL    HW2 2580   3.718   0.555   0.962
  842SOL     OW 2581   1.676   0.957   1.335
  842SOL    HW1 2582   1.708   0.869   1.314
  842SOL    HW2 2583   1.590   0.941   1.376
  843SOL     OW 2584   0.127   4.309   2.307
  843SOL    HW1 2585   0.053   4.333   2.252
  843SOL    HW2 2586   0.192   4.274   2.245
  844SOL     OW 2587   1.029   2.890   4.178
  844SOL    HW1 2588   1.031   2.949   4.253
  844SOL    HW2 2589   0.936   2.876   4.160
  845SOL     OW 2590   2.653   0.773   4.468
  845SOL    HW1 2591   2.731   0.744   4.420
  845SOL    HW2 2592   2.665   0.867   4.478
  846SOL     OW 2593   4.920   1.224   0.018
  846SOL    HW1 2594   0.010   1.301   0.023
  846SOL    HW2 2595   4.941   1.184   4.899
  847SOL     OW 2596   0.190   0.769   2.819
  847SOL    HW1 2597   0.123   0.726   2.872
  847SOL    HW2 2598   0.266   0.711   2.825
  848SOL     OW 2599   3.919   2.991   4.934
  848SOL    HW1 2600   3.955   3.047   0.036
  848SOL    HW2 2601   3.970   3.014   4.856
  849SOL     OW 2602   2.754   3.561   0.251
  849SOL    HW1 2603   2.673   3.600   0.284
  849SOL    HW2 2604   2.791   3.629   0.193
  850SOL     OW 2605   4.387   2.390   2.687
  850SOL    HW1 2606   4.339   2.462   2.728
  850SOL    HW2 2607   4.374   2.402   2.593
  851SOL     OW 2608   0.052   0.661   1.314
  851SOL    HW1 2609   0.012   0.709   1.387
  851SOL    HW2 2610   0.145   0.658   1.336
  852SOL     OW 2611   0.528   4.327   3.682
  852SOL    HW1 2612   0.509   4.343   3.774
  852SOL    HW2 2613   0.450   4.283   3.647
  853SOL     OW 2614   0.824   0.394   2.427
  853SOL    HW1 2615   0.828   0.303   2.398
  853SOL    HW2 2616   0.732   0.418   2.418
  854SOL     OW 2617   2.302   3.837   1.309
  854SOL    HW1 2618   2.282   3.787   1.388
  854SOL    HW2 2619   2.368   3.785   1.263
  855SOL     OW 2620   0.830   3.964   2.532
  855SOL    HW1 2621   0.819   3.937   2.623
  855SOL    HW2 2622   0.907   4.020   2.533
  856SOL     OW 2623   4.808   0.485   2.876
  856SOL    HW1 2624   4.868   0.413   2.855
  856SOL    HW2 2625   4.826   0.506   2.967
  857SOL     OW 2626   3.960   2.407   2.436
  857SOL    HW1 2627   3.893   2.343   2.459
  857SOL    HW2 2628   4.029   2.356   2.393
  858SOL     OW 2629   3.541   0.689   3.819
  858SOL    HW1 2630   3.570   0.747   3.749
  858SOL    HW2 2631   3.473   0.738   3.865
  859SOL     OW 2632   1.538   3.507   3.646
  859SOL    HW1 2633   1.535   3.600   3.623
  859SOL    HW2 2634   1.615   3.473   3.600
  860SOL     OW 2635   1.387   4.461   2.812
  860SOL    HW1 2636   1.456   4.476   2.748
  860SOL    HW2 2637   1.367   4.549   2.845
  861SOL     OW 2638   2.482   1.385   4.657
  861SOL    HW1 2639   2.444   1.449   4.596
  861SOL    HW2 2640   2.574   1.409   4.662
  862SOL     OW 2641   1.934   2.170   0.767
  862SOL    HW1 2642   1.840   2.151   0.770
  862SOL    HW2 2643   1.948   2.201   0.677
  863SOL     OW 2644   2.609   1.385   4.369
  863SOL    HW1 2645   2.541   1.340   4.419
  863SOL    HW2 2646   2.690   1.339   4.393
  864SOL     OW 2647   4.642   1.037   3.206
  864SOL    HW1 2648   4.700   1.061   3.134
  864SOL    HW2 2649   4.555   1.032   3.167
  865SOL     OW 2650   1.139   2.423   0.540
  865SOL    HW1 2651   1.203   2.485   0.576
  865SOL    HW2 2652   1.193   2.357   0.495
  866SOL     OW 2653   0.571   0.785   4.181
  866SOL    HW1 2654   0.581   0.837   4.261
  866SOL    HW2 2655   0.511   0.715   4.205
  867SOL     OW 2656   3.885   2.306   4.077
  867SOL    HW1 2657   3.872   2.400   4.061
  867SOL    HW2 2658   3.881   2.297   4.172
  868SOL     OW 2659   0.141   4.663   4.655
  868SOL    HW1 2660   0.193   4.583   4.661
  868SOL    HW2 2661   0.050   4.633   4.652
  869SOL     OW 2662   1.949   1.505   4.875
  869SOL    HW1 2663   1.928   1.599   4.872
  869SOL    HW2 2664   2.044   1.502   4.862
  870SOL     OW 2665   1.520   2.253   2.445
  870SOL    HW1 2666   1.481   2.215   2.524
  870SOL    HW2 2667   1.495   2.346   2.448
  871SOL     OW 2668   1.324   4.200   1.866
  871SOL    HW1 2669   1.333   4.160   1.953
  871SOL    HW2 2670   1.400   4.257   1.858
  872SOL     OW 2671   2.627   0.933   2.122
  872SOL    HW1 2672   2.631   1.029   2.131
  872SOL    HW2 2673   2.670   0.900   2.201
  873SOL     OW 2674   2.191   3.665   0.565
  873SOL    HW1 2675   2.234   3.668   0.479
  873SOL    HW2 2676   2.100   3.687   0.547
  874SOL     OW 2677   3.642   2.812   3.480
  874SOL    HW1 2678   3.666   2.905   3.486
  874SOL    HW2 2679   3.710   2.774   3.423
  875SOL     OW 2680   2.491   3.491   2.922
  875SOL    HW1 2681   2.551   3.419   2.937
  875SOL    HW2 2682   2.448   3.470   2.839
  876SOL     OW 2683   3.274   3.883   3.469
  876SOL    HW1 2684   3.241   3.944   3.536
  876SOL    HW2 2685   3.196   3.859   3.419
  877SOL     OW 2686   1.607   1.910   2.972
  877SOL    HW1 2687   1.577   1.824   3.003
  877SOL    HW2 2688   1.529   1.965   2.975
  878SOL     OW 2689   1.915   4.267   3.951
  878SOL    HW1 2690   1.871   4.322   3.886
  878SOL    HW2 2691   2.000   4.308   3.963
  879SOL     OW 2692   0.362   2.213   0.651
  879SOL    HW1 2693   0.375   2.215   0.556
  879SOL    HW2 2694   0.395   2.127   0.678
  880SOL     OW 2695   0.306   1.244   0.152
  880SOL    HW1 2696   0.288   1.335   0.128
  880SOL    HW2 2697   0.395   1.247   0.188
  881SOL     OW 2698   3.649   3.804   0.579
  881SOL    HW1 2699   3.600   3.875   0.622
  881SOL    HW2 2700   3.676   3.748   0.652
  882SOL     OW 2701   0.829   2.791   3.940
  882SOL    HW1 2702   0.762   2.739   3.897
  882SOL    HW2 2703   0.783   2.836   4.011
  883SOL     OW 2704   4.953   4.904   1.092
  883SOL    HW1 2705   0.038   4.957   1.031
  883SOL    HW2 2706   4.863   4.934   1.079
  884SOL     OW 2707   4.265   0.808   3.903
  884SOL    HW1 2708   4.246   0.803   3.996
  884SOL    HW2 2709   4.181   0.790   3.860
  885SOL     OW 2710   4.406   2.756   0.577
  885SOL    HW1 2711   4.347   2.812   0.527
  885SOL    HW2 2712   4.362   2.671   0.581
  886SOL     OW 2713   4.802   2.479   1.015
  886SOL    HW1 2714   4.882   2.511   1.058
  886SOL    HW2 2715   4.823   2.389   0.990
  887SOL     OW 2716   1.284   1.515   1.645
  887SOL    HW1 2717   1.374   1.510   1.678
  887SOL    HW2 2718   1.248   1.595   1.685
  888SOL     OW 2719   2.000   2.543   1.477
  888SOL    HW1 2720   1.937   2.533   1.548
  888SOL    HW2 2721   2.037   2.631   1.489
  889SOL     OW 2722   1.744   2.918   0.135
  889SOL    HW1 2723   1.829   2.953   0.161
  889SOL    HW2 2724   1.681   2.960   0.193
  890SOL     OW 2725   4.005   4.731   4.422
  890SOL    HW1 2726   4.054   4.751   4.502
  890SOL    HW2 2727   3.998   4.814   4.376
  891SOL     OW 2728   3.594   3.890   1.275
  891SOL    HW1 2729   3.593   3.985   1.288
  891SOL    HW2 2730   3.687   3.867   1.270
  892SOL     OW 2731   2.692   3.744   3.007
  892SOL    HW1 2732   2.602   3.739   2.976
  892SOL    HW2 2733   2.685   3.738   3.102
  893SOL     OW 2734   3.952   0.041   1.199
  893SOL    HW1 2735   4.002   4.940   1.152
  893SOL    HW2 2736   3.873   4.962   1.229
  894SOL     OW 2737   3.869   1.317   3.412
  894SOL    HW1 2738   3.837   1.387   3.468
  894SOL    HW2 2739   3.953   1.350   3.378
  895SOL     OW 2740   3.061   3.705   0.024
  895SOL    HW1 2741   2.968   3.699   0.003
  895SOL    HW2 2742   3.064   3.739   0.114
  896SOL     OW 2743   0.805   1.592   3.670
  896SOL    HW1 2744   0.782   1.540   3.594
  896SOL    HW2 2745   0.898   1.610   3.661
  897SOL     OW 2746   3.582   0.964   4.527
  897SOL    HW1 2747   3.639   1.030   4.488
  897SOL    HW2 2748   3.541   0.920   4.453
  898SOL     OW 2749   2.573   2.707   1.297
  898SOL    HW1 2750   2.553   2.619   1.327
  898SOL    HW2 2751   2.509   2.724   1.228
  899SOL     OW 2752   4.560   0.911   4.225
  899SOL    HW1 2753   4.605   0.968   4.287
  899SOL    HW2 2754   4.628   0.878   4.167
  900SOL     OW 2755   0.302   2.359   1.519
  900SOL    HW1 2756   0.382   2.411   1.514
  900SOL    HW2 2757   0.267   2.378   1.606
  901SOL     OW 2758   4.844   3.013   1.745
  901SOL    HW1 2759   4.921   2.971   1.706
  901SOL    HW2 2760   4.827   3.088   1.689
  902SOL     OW 2761   3.369   3.877   1.092
  902SOL    HW1 2762   3.371   3.790   1.051
  902SOL    HW2 2763   3.441   3.876   1.154
  903SOL     OW 2764   2.865   0.266   1.841
  903SOL    HW1 2765   2.917   0.329   1.792
  903SOL    HW2 2766   2.865   0.187   1.787
  904SOL     OW 2767   4.160   0.550   2.673
  904SOL    HW1 2768   4.190   0.516   2.758
  904SOL    HW2 2769   4.234   0.533   2.614
  905SOL     OW 2770   2.679   4.455   3.847
  905SOL    HW1 2771   2.683   4.362   3.866
  905SOL    HW2 2772   2.751   4.470   3.786
  906SOL     OW 2773   1.401   4.197   2.189
  906SOL    HW1 2774   1.415   4.176   2.281
  906SOL    HW2 2775   1.473   4.155   2.142
  907SOL     OW 2776   0.529   3.820   0.745
  907SOL    HW1 2777   0.542   3.744   0.801
  907SOL    HW2 2778   0.507   3.783   0.659
  908SOL     OW 2779   4.303   3.554   1.691
  908SOL    HW1 2780   4.329   3.619   1.625
  908SOL    HW2 2781   4.244   3.495   1.645
  909SOL     OW 2782   3.070   3.325   2.080
  909SOL    HW1 2783   2.978   3.317   2.108
  909SOL    HW2 2784   3.066   3.386   2.006
  910SOL     OW 2785   1.578   4.365   1.931
  910SOL    HW1 2786   1.591   4.361   2.026
  910SOL    HW2 2787   1.655   4.321   1.895
  911SOL     OW 2788   0.557   1.010   1.410
  911SOL    HW1 2789   0.611   1.041   1.338
  911SOL    HW2 2790   0.572   0.915   1.413
  912SOL     OW 2791   1.262   3.683   2.623
  912SOL    HW1 2792   1.321   3.743   2.670
  912SOL    HW2 2793   1.316   3.646   2.554
  913SOL     OW 2794   3.746   0.516   4.802
  913SOL    HW1 2795   3.750   0.484   4.893
  913SOL    HW2 2796   3.653   0.512   4.779
  914SOL     OW 2797   1.250   4.213   2.752
  914SOL    HW1 2798   1.315   4.276   2.782
  914SOL    HW2 2799   1.176   4.266   2.723
  915SOL     OW 2800   4.419   2.808   3.410
  915SOL    HW1 2801   4.417   2.894   3.453
  915SOL    HW2 2802   4.384   2.824   3.323
  916SOL     OW 2803   3.090   3.420   3.442
  916SOL    HW1 2804   3.036   3.369   3.381
  916SOL    HW2 2805   3.026   3.472   3.491
  917SOL     OW 2806   3.633   1.771   2.883
  917SOL    HW1 2807   3.593   1.685   2.889
  917SOL    HW2 2808   3.636   1.803   2.973
  918SOL     OW 2809   1.730   0.689   2.190
  918SOL    HW1 2810   1.742   0.719   2.100
  918SOL    HW2 2811   1.802   0.729   2.238
  919SOL     OW 2812   0.636   0.054   4.917
  919SOL    HW1 2813   0.565   0.118   4.920
  919SOL    HW2 2814   0.716   0.106   4.930
  920SOL     OW 2815   3.077   4.702   1.174
  920SOL    HW1 2816   3.101   4.765   1.106
  920SOL    HW2 2817   3.142   4.716   1.244
  921SOL     OW 2818   2.517   2.305   3.270
  921SOL    HW1 2819   2.485   2.282   3.358
  921SOL    HW2 2820   2.606   2.270   3.268
  922SOL     OW 2821   1.418   4.512   4.870
  922SOL    HW1 2822   1.380   4.427   4.850
  922SOL    HW2 2823   1.342   4.569   4.887
  923SOL     OW 2824   0.072   3.622   1.997
  923SOL    HW1 2825   0.086   3.689   1.930
  923SOL    HW2 2826   0.157   3.579   2.007
  924SOL     OW 2827   0.312   0.573   1.702
  924SOL    HW1 2828   0.268   0.506   1.754
  924SOL    HW2 2829   0.369   0.618   1.764
  925SOL     OW 2830   2.944   2.190   1.856
  925SOL    HW1 2831   2.955   2.244   1.934
  925SOL    HW2 2832   3.033   2.177   1.823
  926SOL     OW 2833   4.923   1.260   3.403
  926SOL    HW1 2834   4.879   1.340   3.433
  926SOL    HW2 2835   0.049   1.275   3.421
  927SOL     OW 2836   2.002   3.794   0.290
  927SOL    HW1 2837   2.025   3.703   0.271
  927SOL    HW2 2838   1.944   3.820   0.218
  928SOL     OW 2839   2.668   3.855   4.134
  928SOL    HW1 2840   2.682   3.762   4.118
  928SOL    HW2 2841   2.717   3.899   4.065
  929SOL     OW 2842   1.338   0.668   3.419
  929SOL    HW1 2843   1.337   0.648   3.326
  929SOL    HW2 2844   1.331   0.763   3.424
  930SOL     OW 2845   2.563   2.088   2.227
  930SOL    HW1 2846   2.475   2.083   2.266
  930SOL    HW2 2847   2.619   2.117   2.299
  931SOL     OW 2848   1.937   3.093   2.153
  931SOL    HW1 2849   1.863   3.116   2.096
  931SOL    HW2 2850   2.012   3.089   2.094
  932SOL     OW 2851   4.000   2.214   1.623
  932SOL    HW1 2852   4.031   2.302   1.645
  932SOL    HW2 2853   3.907   2.215   1.646
  933SOL     OW 2854   2.749   0.045   3.513
  933SOL    HW1 2855   2.759   0.048   3.609
  933SOL    HW2 2856   2.837   0.023   3.481
  934SOL     OW 2857   2.324   2.009   4.542
  934SOL    HW1 2858   2.344   2.091   4.497
  934SOL    HW2 2859   2.407   1.960   4.542
  935SOL     OW 2860   1.804   3.700   2.076
  935SOL    HW1 2861   1.800   3.765   2.005
  935SOL    HW2 2862   1.828   3.752   2.153
  936SOL     OW 2863   2.974   0.596   4.008
  936SOL    HW1 2864   3.002   0.586   3.917
  936SOL    HW2 2865   2.900   0.657   4.004
  937SOL     OW 2866   3.372   4.611   1.570
  937SOL    HW1 2867   3.453   4.562   1.582
  937SOL    HW2 2868   3.305   4.558   1.613
  938SOL     OW 2869   4.298   4.834   1.243
  938SOL    HW1 2870   4.268   4.777   1.172
  938SOL    HW2 2871   4.315   4.918   1.201
  939SOL     OW 2872   1.413   0.928   2.409
  939SOL    HW1 2873   1.451   0.948   2.494
  939SOL    HW2 2874   1.328   0.971   2.410
  940SOL     OW 2875   3.217   3.099   2.935
  940SOL    HW1 2876   3.137   3.142   2.967
  940SOL    HW2 2877   3.199   3.005   2.943
  941SOL     OW 2878   1.792   2.914   4.463
  941SOL    HW1 2879   1.757   2.829   4.488
  941SOL    HW2 2880   1.752   2.934   4.379
  942SOL     OW 2881   0.301   3.648   4.333
  942SOL    HW1 2882   0.213   3.655   4.296
  942SOL    HW2 2883   0.327   3.557   4.317
  943SOL     OW 2884   0.517   3.352   2.189
  943SOL    HW1 2885   0.569   3.350   2.269
  943SOL    HW2 2886   0.557   3.421   2.136
  944SOL     OW 2887   3.717   1.243   4.754
  944SOL    HW1 2888   3.746   1.162   4.711
  944SOL    HW2 2889   3.791   1.303   4.743
  945SOL     OW 2890   3.791   3.581   2.063
  945SOL    HW1 2891   3.858   3.570   1.997
  945SOL    HW2 2892   3.789   3.498   2.111
  946SOL     OW 2893   1.578   4.405   1.168
  946SOL    HW1 2894   1.647   4.411   1.234
  946SOL    HW2 2895   1.514   4.346   1.206
  947SOL     OW 2896   3.423   0.649   1.830
  947SOL    HW1 2897   3.348   0.609   1.873
  947SOL    HW2 2898   3.393   0.669   1.742
  948SOL     OW 2899   3.906   3.621   4.414
  948SOL    HW1 2900   3.866   3.649   4.496
  948SOL    HW2 2901   3.833   3.604   4.355
  949SOL     OW 2902   2.838   3.214   4.379
  949SOL    HW1 2903   2.795   3.288   4.335
  949SOL    HW2 2904   2.767   3.154   4.401
  950SOL     OW 2905   2.628   1.107   0.215
  950SOL    HW1 2906   2.580   1.060   0.284
  950SOL    HW2 2907   2.608   1.059   0.135
  951SOL     OW 2908   1.627   3.846   0.880
  951SOL    HW1 2909   1.695   3.880   0.939
  951SOL    HW2 2910   1.623   3.911   0.809
  952SOL     OW 2911   3.235   2.393   1.233
  952SOL    HW1 2912   3.255   2.447   1.309
  952SOL    HW2 2913   3.148   2.421   1.206
  953SOL     OW 2914   4.798   3.449   0.241
  953SOL    HW1 2915   4.721   3.505   0.253
  953SOL    HW2 2916   4.802   3.397   0.321
  954SOL     OW 2917   4.814   0.716   0.778
  954SOL    HW1 2918   4.755   0.679   0.712
  954SOL    HW2 2919   4.853   0.639   0.820
  955SOL     OW 2920   4.702   2.507   3.177
  955SOL    HW1 2921   4.674   2.594   3.203
  955SOL    HW2 2922   4.732   2.518   3.086
  956SOL     OW 2923   4.236   4.768   3.695
  956SOL    HW1 2924   4.147   4.739   3.715
  956SOL    HW2 2925   4.263   4.714   3.620
  957SOL     OW 2926   4.243   3.680   3.111
  957SOL    HW1 2927   4.257   3.711   3.022
  957SOL    HW2 2928   4.174   3.613   3.103
  958SOL     OW 2929   4.271   4.605   3.463
  958SOL    HW1 2930   4.338   4.540   3.486
  958SOL    HW2 2931   4.273   4.609   3.367
  959SOL     OW 2932   4.267   3.079   2.955
  959SOL    HW1 2933   4.192   3.098   2.898
  959SOL    HW2 2934   4.344   3.092   2.899
  960SOL     OW 2935   1.974   1.509   2.756
  960SOL    HW1 2936   2.033   1.552   2.818
  960SOL    HW2 2937   1.961   1.574   2.687
  961SOL     OW 2938   3.861   1.027   4.661
  961SOL    HW1 2939   3.822   0.945   4.691
  961SOL    HW2 2940   3.950   1.025   4.695
  962SOL     OW 2941   4.416   1.938   1.191
  962SOL    HW1 2942   4.366   1.915   1.269
  962SOL    HW2 2943   4.389   2.027   1.169
  963SOL     OW 2944   0.251   1.446   3.752
  963SOL    HW1 2945   0.325   1.428   3.694
  963SOL    HW2 2946   0.289   1.494   3.825
  964SOL     OW 2947   3.763   2.439   1.669
  964SOL    HW1 2948   3.759   2.493   1.591
  964SOL    HW2 2949   3.849   2.458   1.707
  965SOL     OW 2950   1.082   0.246   0.776
  965SOL    HW1 2951   1.160   0.190   0.777
  965SOL    HW2 2952   1.098   0.310   0.845
  966SOL     OW 2953   0.698   2.333   3.267
  966SOL    HW1 2954   0.781   2.287   3.281
  966SOL    HW2 2955   0.631   2.271   3.298
  967SOL     OW 2956   0.940   3.144   1.793
  967SOL    HW1 2957   1.025   3.163   1.835
  967SOL    HW2 2958   0.946   3.184   1.707
  968SOL     OW 2959   1.666   1.744   2.054
  968SOL    HW1 2960   1.580   1.766   2.090
  968SOL    HW2 2961   1.667   1.786   1.968
  969SOL     OW 2962   2.822   4.345   1.395
  969SOL    HW1 2963   2.746   4.287   1.389
  969SOL    HW2 2964   2.834   4.379   1.306
  970SOL     OW 2965   1.252   0.930   0.101
  970SOL    HW1 2966   1.266   0.943   0.195
  970SOL    HW2 2967   1.248   0.835   0.091
  971SOL     OW 2968   4.941   2.258   4.028
  971SOL    HW1 2969   4.927   2.177   3.979
  971SOL    HW2 2970   0.030   2.311   3.971
  972SOL     OW 2971   4.504   1.171   0.383
  972SOL    HW1 2972   4.459   1.150   0.464
  972SOL    HW2 2973   4.584   1.215   0.410
  973SOL     OW 2974   0.928   1.948   3.628
  973SOL    HW1 2975   0.902   1.974   3.717
  973SOL    HW2 2976   0.986   1.873   3.641
  974SOL     OW 2977   0.049   3.176   3.929
  974SOL    HW1 2978   0.016   3.245   3.873
  974SOL    HW2 2979   0.116   3.132   3.877
  975SOL     OW 2980   0.148   4.199   1.975
  975SOL    HW1 2981   0.072   4.246   2.009
  975SOL    HW2 2982   0.133   4.193   1.881
  976SOL     OW 2983   4.721   2.985   3.426
  976SOL    HW1 2984   4.657   2.999   3.496
  976SOL    HW2 2985   4.787   3.053   3.439
  977SOL     OW 2986   2.167   2.609   1.873
  977SOL    HW1 2987   2.134   2.687   1.916
  977SOL    HW2 2988   2.091   2.573   1.828
  978SOL     OW 2989   1.308   4.402   2.411
  978SOL    HW1 2990   1.239   4.415   2.345
  978SOL    HW2 2991   1.317   4.488   2.452
  979SOL     OW 2992   0.102   4.336   0.210
  979SOL    HW1 2993   0.186   4.379   0.194
  979SOL    HW2 2994   0.123   4.262   0.267
  980SOL     OW 2995   2.944   4.327   2.647
  980SOL    HW1 2996   2.902   4.371   2.573
  980SOL    HW2 2997   2.947   4.235   2.621
  981SOL     OW 2998   1.006   4.326   4.614
  981SOL    HW1 2999   0.991   4.412   4.573
  981SOL    HW2 3000   0.925   4.278   4.598
  982SOL     OW 3001   1.752   3.499   4.314
  982SOL    HW1 3002   1.686   3.431   4.330
  982SOL    HW2 3003   1.812   3.460   4.250
  983SOL     OW 3004   4.508   4.876   1.412
  983SOL    HW1 3005   4.524   4.811   1.480
  983SOL    HW2 3006   4.422   4.852   1.376
  984SOL     OW 3007   0.557   3.593   0.045
  984SOL    HW1 3008   0.510   3.513   0.019
  984SOL    HW2 3009   0.598   3.624   4.931
  985SOL     OW 3010   1.839   0.514   4.165
  985SOL    HW1 3011   1.791   0.431   4.168
  985SOL    HW2 3012   1.860   0.526   4.072
  986SOL     OW 3013   3.403   4.313   1.885
  986SOL    HW1 3014   3.364   4.231   1.915
  986SOL    HW2 3015   3.359   4.333   1.802
  987SOL     OW 3016   2.471   4.543   4.624
  987SOL    HW1 3017   2.473   4.634   4.595
  987SOL    HW2 3018   2.525   4.541   4.703
  988SOL     OW 3019   2.854   4.195   1.131
  988SOL    HW1 3020   2.790   4.243   1.078
  988SOL    HW2 3021   2.937   4.205   1.083
  989SOL     OW 3022   3.513   1.069   3.843
  989SOL    HW1 3023   3.473   1.145   3.799
  989SOL    HW2 3024   3.533   1.008   3.772
  990SOL     OW 3025   4.784   2.607   2.046
  990SOL    HW1 3026   4.785   2.639   1.956
  990SOL    HW2 3027   4.718   2.538   2.047
  991SOL     OW 3028   4.098   3.678   4.219
  991SOL    HW1 3029   4.116   3.772   4.218
  991SOL    HW2 3030   4.030   3.667   4.285
  992SOL     OW 3031   1.626   3.551   2.991
  992SOL    HW1 3032   1.543   3.550   3.039
  992SOL    HW2 3033   1.602   3.523   2.902
  993SOL     OW 3034   1.655   4.377   0.870
  993SOL    HW1 3035   1.665   4.377   0.965
  993SOL    HW2 3036   1.576   4.428   0.853
  994SOL     OW 3037   2.889   3.174   3.760
  994SOL    HW1 3038   2.945   3.251   3.770
  994SOL    HW2 3039   2.803   3.203   3.789
  995SOL     OW 3040   1.901   4.729   1.072
  995SOL    HW1 3041   1.859   4.749   0.987
  995SOL    HW2 3042   1.927   4.638   1.064
  996SOL     OW 3043   3.576   4.771   0.284
  996SOL    HW1 3044   3.650   4.829   0.271
  996SOL    HW2 3045   3.614   4.683   0.281
  997SOL     OW 3046   4.939   2.205   2.193
  997SOL    HW1 3047   4.926   2.114   2.167
  997SOL    HW2 3048   0.029   2.242   2.126
  998SOL     OW 3049   2.307   0.065   3.283
  998SOL    HW1 3050   2.350   0.026   3.359
  998SOL    HW2 3051   2.334   0.010   3.210
  999SOL     OW 3052   4.640   3.502   1.289
  999SOL    HW1 3053   4.599   3.586   1.268
  999SOL    HW2 3054   4.716   3.497   1.231
 1000SOL     OW 3055   4.785   4.144   0.075
 1000SOL    HW1 3056   4.846   4.159   0.147
 1000SOL    HW2 3057   4.767   4.232   0.041
 1001SOL     OW 3058   1.868   3.618   3.434
 1001SOL    HW1 3059   1.942   3.612   3.494
 1001SOL    HW2 3060   1.820   3.537   3.446
 1002SOL     OW 3061   3.217   2.118   0.016
 1002SOL    HW1 3062   3.179   2.044   4.935
 1002SOL    HW2 3063   3.147   2.147   0.074
 1003SOL     OW 3064   3.618   0.899   3.667
 1003SOL    HW1 3065   3.696   0.954   3.671
 1003SOL    HW2 3066   3.600   0.889   3.574
 1004SOL     OW 3067   0.725   1.752   4.244
 1004SOL    HW1 3068   0.777   1.747   4.164
 1004SOL    HW2 3069   0.780   1.801   4.305
 1005SOL     OW 3070   1.861   3.880   3.620
 1005SOL    HW1 3071   1.825   3.800   3.581
 1005SOL    HW2 3072   1.800   3.902   3.690
 1006SOL     OW 3073   3.766   4.919   1.671
 1006SOL    HW1 3074   3.757   4.957   1.758
 1006SOL    HW2 3075   3.760   0.027   1.611
 1007SOL     OW 3076   2.269   2.279   0.119
 1007SOL    HW1 3077   2.285   2.334   0.196
 1007SOL    HW2 3078   2.195   2.223   0.145
 1008SOL     OW 3079   0.920   3.486   1.846
 1008SOL    HW1 3080   0.935   3.458   1.756
 1008SOL    HW2 3081   0.829   3.513   1.849
 1009SOL     OW 3082   3.604   4.176   2.532
 1009SOL    HW1 3083   3.563   4.108   2.585
 1009SOL    HW2 3084   3.538   4.197   2.465
 1010SOL     OW 3085   0.788   2.829   2.083
 1010SOL    HW1 3086   0.731   2.903   2.062
 1010SOL    HW2 3087   0.817   2.845   2.172
 1011SOL     OW 3088   2.149   1.299   2.975
 1011SOL    HW1 3089   2.208   1.371   2.956
 1011SOL    HW2 3090   2.187   1.255   3.051
 1012SOL     OW 3091   4.184   3.033   1.449
 1012SOL    HW1 3092   4.101   3.017   1.403
 1012SOL    HW2 3093   4.251   3.026   1.381
 1013SOL     OW 3094   3.567   2.395   3.055
 1013SOL    HW1 3095   3.633   2.331   3.081
 1013SOL    HW2 3096   3.483   2.352   3.071
 1014SOL     OW 3097   3.791   3.939   4.380
 1014SOL    HW1 3098   3.778   3.889   4.299
 1014SOL    HW2 3099   3.710   3.924   4.430
 1015SOL     OW 3100   1.444   0.843   1.471
 1015SOL    HW1 3101   1.349   0.850   1.456
 1015SOL    HW2 3102   1.452   0.829   1.565
 1016SOL     OW 3103   1.841   3.558   4.806
 1016SOL    HW1 3104   1.834   3.476   4.855
 1016SOL    HW2 3105   1.798   3.539   4.722
 1017SOL     OW 3106   0.166   3.617   0.022
 1017SOL    HW1 3107   0.163   3.523   0.007
 1017SOL    HW2 3108   0.215   3.651   4.913
 1018SOL     OW 3109   0.314   2.935   3.944
 1018SOL    HW1 3110   0.327   2.846   3.910
 1018SOL    HW2 3111   0.303   2.989   3.866
 1019SOL     OW 3112   0.287   3.187   0.068
 1019SOL    HW1 3113   0.206   3.238   0.064
 1019SOL    HW2 3114   0.273   3.127   0.142
 1020SOL     OW 3115   3.471   2.138   4.341
 1020SOL    HW1 3116   3.476   2.087   4.422
 1020SOL    HW2 3117   3.439   2.076   4.275
 1021SOL     OW 3118   2.476   0.621   3.489
 1021SOL    HW1 3119   2.547   0.656   3.436
 1021SOL    HW2 3120   2.468   0.681   3.562
 1022SOL     OW 3121   4.267   1.501   1.427
 1022SOL    HW1 3122   4.191   1.470   1.376
 1022SOL    HW2 3123   4.317   1.553   1.365
 1023SOL     OW 3124   0.808   2.294   0.045
 1023SOL    HW1 3125   0.884   2.253   0.003
 1023SOL    HW2 3126   0.779   2.361   4.950
 1024SOL     OW 3127   1.257   2.544   1.493
 1024SOL    HW1 3128   1.249   2.590   1.409
 1024SOL    HW2 3129   1.225   2.606   1.558
 1025SOL     OW 3130   2.845   2.831   0.810
 1025SOL    HW1 3131   2.810   2.881   0.883
 1025SOL    HW2 3132   2.812   2.742   0.824
 1026SOL     OW 3133   4.094   0.195   1.820
 1026SOL    HW1 3134   4.149   0.117   1.817
 1026SOL    HW2 3135   4.009   0.166   1.788
 1027SOL     OW 3136   1.519   2.369   4.112
 1027SOL    HW1 3137   1.584   2.315   4.157
 1027SOL    HW2 3138   1.570   2.437   4.069
 1028SOL     OW 3139   4.411   4.927   2.061
 1028SOL    HW1 3140   4.441   4.930   1.970
 1028SOL    HW2 3141   4.316   4.917   2.055
 1029SOL     OW 3142   3.247   2.766   1.909
 1029SOL    HW1 3143   3.342   2.752   1.906
 1029SOL    HW2 3144   3.213   2.689   1.955
 1030SOL     OW 3145   3.889   0.094   2.956
 1030SOL    HW1 3146   3.889   4.966   2.964
 1030SOL    HW2 3147   3.982   0.116   2.942
 1031SOL     OW 3148   3.571   0.576   1.336
 1031SOL    HW1 3149   3.601   0.531   1.256
 1031SOL    HW2 3150   3.486   0.612   1.313
 1032SOL     OW 3151   0.276   2.563   4.755
 1032SOL    HW1 3152   0.343   2.626   4.729
 1032SOL    HW2 3153   0.230   2.542   4.674
 1033SOL     OW 3154   1.158   3.996   3.788
 1033SOL    HW1 3155   1.138   3.927   3.852
 1033SOL    HW2 3156   1.093   4.064   3.805
 1034SOL     OW 3157   4.733   1.460   3.594
 1034SOL    HW1 3158   4.674   1.457   3.670
 1034SOL    HW2 3159   4.792   1.534   3.613
 1035SOL     OW 3160   0.283   4.487   0.057
 1035SOL    HW1 3161   0.307   4.564   0.109
 1035SOL    HW2 3162   0.366   4.445   0.036
 1036SOL     OW 3163   0.160   1.862   1.945
 1036SOL    HW1 3164   0.216   1.919   1.997
 1036SOL    HW2 3165   0.216   1.833   1.873
 1037SOL     OW 3166   2.574   1.610   4.927
 1037SOL    HW1 3167   2.517   1.680   4.896
 1037SOL    HW2 3168   2.624   1.583   4.850
 1038SOL     OW 3169   2.329   2.012   1.942
 1038SOL    HW1 3170   2.281   2.009   1.860
 1038SOL    HW2 3171   2.358   2.103   1.950
 1039SOL     OW 3172   3.325   1.470   4.451
 1039SOL    HW1 3173   3.419   1.464   4.432
 1039SOL    HW2 3174   3.283   1.422   4.380
 1040SOL     OW 3175   2.515   3.976   0.454
 1040SOL    HW1 3176   2.444   3.935   0.504
 1040SOL    HW2 3177   2.553   4.041   0.514
 1041SOL     OW 3178   3.495   4.892   1.560
 1041SOL    HW1 3179   3.463   4.817   1.609
 1041SOL    HW2 3180   3.583   4.909   1.596
 1042SOL     OW 3181   4.459   1.724   2.260
 1042SOL    HW1 3182   4.483   1.814   2.240
 1042SOL    HW2 3183   4.369   1.715   2.229
 1043SOL     OW 3184   4.393   3.027   1.292
 1043SOL    HW1 3185   4.410   2.953   1.234
 1043SOL    HW2 3186   4.475   3.076   1.293
 1044SOL     OW 3187   0.737   3.951   3.456
 1044SOL    HW1 3188   0.786   3.893   3.398
 1044SOL    HW2 3189   0.802   3.985   3.518
 1045SOL     OW 3190   0.269   1.378   4.399
 1045SOL    HW1 3191   0.358   1.382   4.435
 1045SOL    HW2 3192   0.281   1.365   4.306
 1046SOL     OW 3193   0.866   1.773   0.577
 1046SOL    HW1 3194   0.857   1.847   0.516
 1046SOL    HW2 3195   0.960   1.765   0.591
 1047SOL     OW 3196   3.384   1.818   2.435
 1047SOL    HW1 3197   3.366   1.740   2.487
 1047SOL    HW2 3198   3.302   1.869   2.440
 1048SOL     OW 3199   4.926   4.196   0.985
 1048SOL    HW1 3200   4.846   4.213   1.036
 1048SOL    HW2 3201   0.028   4.187   1.050
 1049SOL     OW 3202   1.251   2.951   3.573
 1049SOL    HW1 3203   1.331   2.995   3.601
 1049SOL    HW2 3204   1.198   2.946   3.653
 1050SOL     OW 3205   0.751   3.059   4.689
 1050SOL    HW1 3206   0.734   3.007   4.610
 1050SOL    HW2 3207   0.829   3.110   4.667
 1051SOL     OW 3208   1.585   1.809   3.283
 1051SOL    HW1 3209   1.500   1.812   3.328
 1051SOL    HW2 3210   1.566   1.767   3.199
 1052SOL     OW 3211   1.693   1.503   0.340
 1052SOL    HW1 3212   1.703   1.514   0.435
 1052SOL    HW2 3213   1.779   1.525   0.304
 1053SOL     OW 3214   1.166   3.871   3.077
 1053SOL    HW1 3215   1.261   3.883   3.084
 1053SOL    HW2 3216   1.143   3.815   3.151
 1054SOL     OW 3217   1.569   0.926   0.181
 1054SOL    HW1 3218   1.586   0.978   0.102
 1054SOL    HW2 3219   1.500   0.973   0.227
 1055SOL     OW 3220   4.652   2.057   0.493
 1055SOL    HW1 3221   4.621   2.130   0.440
 1055SOL    HW2 3222   4.572   2.008   0.514
 1056SOL     OW 3223   4.294   1.939   4.910
 1056SOL    HW1 3224   4.270   1.847   4.926
 1056SOL    HW2 3225   4.227   1.990   4.955
 1057SOL     OW 3226   1.724   3.772   2.885
 1057SOL    HW1 3227   1.814   3.794   2.857
 1057SOL    HW2 3228   1.734   3.691   2.935
 1058SOL     OW 3229   4.867   3.156   1.176
 1058SOL    HW1 3230   4.824   3.147   1.262
 1058SOL    HW2 3231   4.856   3.249   1.154
 1059SOL     OW 3232   4.803   3.377   4.139
 1059SOL    HW1 3233   4.762   3.448   4.089
 1059SOL    HW2 3234   4.745   3.362   4.213
 1060SOL     OW 3235   1.194   0.094   4.563
 1060SOL    HW1 3236   1.101   0.074   4.567
 1060SOL    HW2 3237   1.198   0.183   4.529
 1061SOL     OW 3238   0.428   0.822   2.231
 1061SOL    HW1 3239   0.484   0.762   2.282
 1061SOL    HW2 3240   0.368   0.859   2.295
 1062SOL     OW 3241   3.966   1.426   0.040
 1062SOL    HW1 3242   3.978   1.408   0.133
 1062SOL    HW2 3243   4.054   1.438   0.006
 1063SOL     OW 3244   3.274   1.055   3.620
 1063SOL    HW1 3245   3.337   1.115   3.579
 1063SOL    HW2 3246   3.202   1.112   3.648
 1064SOL     OW 3247   3.745   0.337   1.755
 1064SOL    HW1 3248   3.657   0.348   1.719
 1064SOL    HW2 3249   3.796   0.410   1.719
 1065SOL     OW 3250   0.012   2.278   2.627
 1065SOL    HW1 3251   4.915   2.245   2.564
 1065SOL    HW2 3252   4.940   2.258   2.713
 1066SOL     OW 3253   4.911   0.648   3.418
 1066SOL    HW1 3254   4.848   0.689   3.478
 1066SOL    HW2 3255   4.858   0.596   3.359
 1067SOL     OW 3256   2.535   4.123   0.002
 1067SOL    HW1 3257   2.591   4.148   4.895
 1067SOL    HW2 3258   2.498   4.206   0.034
 1068SOL     OW 3259   0.132   0.898   1.761
 1068SOL    HW1 3260   0.156   0.897   1.854
 1068SOL    HW2 3261   0.078   0.977   1.751
 1069SOL     OW 3262   4.531   2.206   3.847
 1069SOL    HW1 3263   4.523   2.268   3.774
 1069SOL    HW2 3264   4.580   2.253   3.914
 1070SOL     OW 3265   0.695   4.847   0.916
 1070SOL    HW1 3266   0.773   4.882   0.873
 1070SOL    HW2 3267   0.623   4.871   0.857
 1071SOL     OW 3268   0.622   1.208   3.551
 1071SOL    HW1 3269   0.689   1.209   3.619
 1071SOL    HW2 3270   0.671   1.218   3.469
 1072SOL     OW 3271   4.332   1.381   3.211
 1072SOL    HW1 3272   4.367   1.375   3.122
 1072SOL    HW2 3273   4.389   1.323   3.262
 1073SOL     OW 3274   2.981   0.185   2.753
 1073SOL    HW1 3275   3.007   0.122   2.820
 1073SOL    HW2 3276   3.063   0.214   2.713
 1074SOL     OW 3277   0.218   4.468   3.829
 1074SOL    HW1 3278   0.247   4.521   3.755
 1074SOL    HW2 3279   0.157   4.524   3.877
 1075SOL     OW 3280   3.087   3.588   0.692
 1075SOL    HW1 3281   3.013   3.541   0.654
 1075SOL    HW2 3282   3.049   3.636   0.765
 1076SOL     OW 3283   2.025   4.838   2.555
 1076SOL    HW1 3284   1.970   4.916   2.565
 1076SOL    HW2 3285   2.009   4.808   2.466
 1077SOL     OW 3286   2.428   3.842   2.534
 1077SOL    HW1 3287   2.394   3.770   2.481
 1077SOL    HW2 3288   2.442   3.913   2.471
 1078SOL     OW 3289   0.721   3.575   3.167
 1078SOL    HW1 3290   0.787   3.509   3.187
 1078SOL    HW2 3291   0.766   3.636   3.109
 1079SOL     OW 3292   1.777   0.705   1.509
 1079SOL    HW1 3293   1.783   0.611   1.530
 1079SOL    HW2 3294   1.856   0.743   1.546
 1080SOL     OW 3295   0.118   3.843   0.145
 1080SOL    HW1 3296   0.141   3.759   0.106
 1080SOL    HW2 3297   0.102   3.900   0.070
 1081SOL     OW 3298   4.265   3.814   2.855
 1081SOL    HW1 3299   4.182   3.862   2.857
 1081SOL    HW2 3300   4.242   3.728   2.820
 1082SOL     OW 3301   0.200   4.347   0.729
 1082SOL    HW1 3302   0.111   4.381   0.738
 1082SOL    HW2 3303   0.257   4.418   0.760
 1083SOL     OW 3304   4.444   4.282   4.659
 1083SOL    HW1 3305   4.383   4.354   4.672
 1083SOL    HW2 3306   4.408   4.233   4.585
 1084SOL     OW 3307   4.269   4.703   4.867
 1084SOL    HW1 3308   4.242   4.708   4.959
 1084SOL    HW2 3309   4.359   4.735   4.866
 1085SOL     OW 3310   2.435   2.981   3.788
 1085SOL    HW1 3311   2.479   2.960   3.870
 1085SOL    HW2 3312   2.505   3.009   3.729
 1086SOL     OW 3313   1.763   0.450   0.279
 1086SOL    HW1 3314   1.812   0.511   0.335
 1086SOL    HW2 3315   1.811   0.368   0.287
 1087SOL     OW 3316   3.427   1.133   4.269
 1087SOL    HW1 3317   3.515   1.166   4.255
 1087SOL    HW2 3318   3.435   1.038   4.257
 1088SOL     OW 3319   1.088   4.176   4.115
 1088SOL    HW1 3320   1.022   4.166   4.046
 1088SOL    HW2 3321   1.172   4.167   4.069
 1089SOL     OW 3322   3.100   2.801   0.722
 1089SOL    HW1 3323   3.100   2.771   0.631
 1089SOL    HW2 3324   3.010   2.828   0.738
 1090SOL     OW 3325   0.645   3.661   0.332
 1090SOL    HW1 3326   0.578   3.709   0.381
 1090SOL    HW2 3327   0.604   3.644   0.247
 1091SOL     OW 3328   3.684   0.027   4.110
 1091SOL    HW1 3329   3.595   0.016   4.075
 1091SOL    HW2 3330   3.711   0.114   4.080
 1092SOL     OW 3331   2.203   4.518   1.176
 1092SOL    HW1 3332   2.189   4.428   1.206
 1092SOL    HW2 3333   2.195   4.513   1.081
 1093SOL     OW 3334   0.059   3.467   2.230
 1093SOL    HW1 3335   0.136   3.411   2.242
 1093SOL    HW2 3336   0.070   3.503   2.142
 1094SOL     OW 3337   4.445   0.000   2.335
 1094SOL    HW1 3338   4.438   4.954   2.241
 1094SOL    HW2 3339   4.403   0.085   2.351
 1095SOL     OW 3340   1.478   3.730   4.136
 1095SOL    HW1 3341   1.553   3.672   4.121
 1095SOL    HW2 3342   1.514   3.818   4.126
 1096SOL     OW 3343   0.825   1.902   1.636
 1096SOL    HW1 3344   0.822   1.931   1.727
 1096SOL    HW2 3345   0.894   1.955   1.596
 1097SOL     OW 3346   4.370   3.114   3.352
 1097SOL    HW1 3347   4.293   3.171   3.357
 1097SOL    HW2 3348   4.431   3.161   3.295
 1098SOL     OW 3349   1.291   2.576   4.481
 1098SOL    HW1 3350   1.262   2.531   4.560
 1098SOL    HW2 3351   1.374   2.534   4.460
 1099SOL     OW 3352   2.524   3.609   0.032
 1099SOL    HW1 3353   2.431   3.619   0.052
 1099SOL    HW2 3354   2.540   3.514   0.035
 1100SOL     OW 3355   3.224   1.348   4.220
 1100SOL    HW1 3356   3.229   1.256   4.246
 1100SOL    HW2 3357   3.218   1.345   4.124
 1101SOL     OW 3358   3.594   3.857   2.591
 1101SOL    HW1 3359   3.580   3.797   2.519
 1101SOL    HW2 3360   3.645   3.807   2.655
 1102SOL     OW 3361   1.217   0.973   1.500
 1102SOL    HW1 3362   1.235   1.064   1.522
 1102SOL    HW2 3363   1.178   0.977   1.412
 1103SOL     OW 3364   2.256   0.503   2.715
 1103SOL    HW1 3365   2.235   0.425   2.767
 1103SOL    HW2 3366   2.352   0.503   2.709
 1104SOL     OW 3367   1.697   4.897   0.466
 1104SOL    HW1 3368   1.736   4.833   0.407
 1104SOL    HW2 3369   1.661   4.844   0.538
 1105SOL     OW 3370   2.268   2.491   4.410
 1105SOL    HW1 3371   2.318   2.572   4.413
 1105SOL    HW2 3372   2.221   2.489   4.493
 1106SOL     OW 3373   3.630   0.939   4.915
 1106SOL    HW1 3374   3.648   0.886   4.838
 1106SOL    HW2 3375   3.715   0.949   4.958
 1107SOL     OW 3376   2.034   0.795   3.621
 1107SOL    HW1 3377   1.980   0.835   3.690
 1107SOL    HW2 3378   2.104   0.751   3.669
 1108SOL     OW 3379   0.789   1.684   3.940
 1108SOL    HW1 3380   0.800   1.777   3.920
 1108SOL    HW2 3381   0.788   1.641   3.854
 1109SOL     OW 3382   4.605   0.221   2.151
 1109SOL    HW1 3383   4.511   0.221   2.131
 1109SOL    HW2 3384   4.640   0.297   2.106
 1110SOL     OW 3385   2.668   1.172   2.410
 1110SOL    HW1 3386   2.601   1.155   2.476
 1110SOL    HW2 3387   2.744   1.203   2.459
 1111SOL     OW 3388   1.699   3.566   3.998
 1111SOL    HW1 3389   1.791   3.540   3.990
 1111SOL    HW2 3390   1.661   3.544   3.913
 1112SOL     OW 3391   1.865   0.661   2.632
 1112SOL    HW1 3392   1.860   0.751   2.599
 1112SOL    HW2 3393   1.897   0.670   2.721
 1113SOL     OW 3394   4.516   2.944   2.172
 1113SOL    HW1 3395   4.592   2.928   2.116
 1113SOL    HW2 3396   4.450   2.883   2.139
 1114SOL     OW 3397   2.788   3.047   1.884
 1114SOL    HW1 3398   2.788   3.075   1.976
 1114SOL    HW2 3399   2.861   2.986   1.877
 1115SOL     OW 3400   4.746   1.479   1.096
 1115SOL    HW1 3401   4.804   1.417   1.051
 1115SOL    HW2 3402   4.798   1.560   1.102
 1116SOL     OW 3403   4.813   1.529   2.576
 1116SOL    HW1 3404   4.788   1.621   2.564
 1116SOL    HW2 3405   4.733   1.480   2.558
 1117SOL     OW 3406   4.006   3.370   0.846
 1117SOL    HW1 3407   4.077   3.374   0.911
 1117SOL    HW2 3408   4.049   3.344   0.765
 1118SOL     OW 3409   3.604   1.668   0.167
 1118SOL    HW1 3410   3.612   1.585   0.214
 1118SOL    HW2 3411   3.545   1.648   0.094
 1119SOL     OW 3412   4.921   0.458   0.873
 1119SOL    HW1 3413   0.046   0.467   0.900
 1119SOL    HW2 3414   4.880   0.408   0.944
 1120SOL     OW 3415   1.715   1.402   1.239
 1120SOL    HW1 3416   1.781   1.385   1.306
 1120SOL    HW2 3417   1.713   1.321   1.187
 1121SOL     OW 3418   0.251   1.929   0.268
 1121SOL    HW1 3419   0.204   2.013   0.272
 1121SOL    HW2 3420   0.343   1.953   0.265
 1122SOL     OW 3421   1.393   0.727   4.495
 1122SOL    HW1 3422   1.394   0.819   4.519
 1122SOL    HW2 3423   1.481   0.710   4.461
 1123SOL     OW 3424   3.093   2.297   0.886
 1123SOL    HW1 3425   3.065   2.310   0.977
 1123SOL    HW2 3426   3.057   2.371   0.839
 1124SOL     OW 3427   1.353   0.014   3.013
 1124SOL    HW1 3428   1.443   4.954   3.031
 1124SOL    HW2 3429   1.361   0.087   2.952
 1125SOL     OW 3430   1.553   0.882   0.538
 1125SOL    HW1 3431   1.513   0.811   0.487
 1125SOL    HW2 3432   1.526   0.962   0.494
 1126SOL     OW 3433   3.145   4.299   3.539
 1126SOL    HW1 3434   3.083   4.292   3.466
 1126SOL    HW2 3435   3.224   4.337   3.501
 1127SOL     OW 3436   3.919   0.489   4.364
 1127SOL    HW1 3437   3.868   0.428   4.310
 1127SOL    HW2 3438   3.883   0.480   4.452
 1128SOL     OW 3439   4.078   1.458   0.304
 1128SOL    HW1 3440   4.020   1.515   0.353
 1128SOL    HW2 3441   4.159   1.457   0.355
 1129SOL     OW 3442   3.684   2.390   2.553
 1129SOL    HW1 3443   3.722   2.303   2.562
 1129SOL    HW2 3444   3.612   2.391   2.616
 1130SOL     OW 3445   4.956   3.886   2.217
 1130SOL    HW1 3446   0.035   3.812   2.256
 1130SOL    HW2 3447   4.869   3.884   2.256
 1131SOL     OW 3448   3.091   1.382   3.135
 1131SOL    HW1 3449   3.059   1.369   3.224
 1131SOL    HW2 3450   3.077   1.297   3.092
 1132SOL     OW 3451   0.491   0.004   3.873
 1132SOL    HW1 3452   0.417   0.045   3.828
 1132SOL    HW2 3453   0.561   0.068   3.867
 1133SOL     OW 3454   4.105   2.753   4.837
 1133SOL    HW1 3455   4.034   2.789   4.891
 1133SOL    HW2 3456   4.116   2.663   4.868
 1134SOL     OW 3457   1.856   2.607   3.535
 1134SOL    HW1 3458   1.906   2.646   3.607
 1134SOL    HW2 3459   1.922   2.564   3.481
 1135SOL     OW 3460   0.393   4.950   2.581
 1135SOL    HW1 3461   0.374   0.060   2.526
 1135SOL    HW2 3462   0.314   4.896   2.576
 1136SOL     OW 3463   2.929   0.115   4.760
 1136SOL    HW1 3464   2.991   0.089   4.692
 1136SOL    HW2 3465   2.870   0.177   4.717
 1137SOL     OW 3466   2.781   4.016   3.406
 1137SOL    HW1 3467   2.808   4.060   3.325
 1137SOL    HW2 3468   2.763   4.086   3.468
 1138SOL     OW 3469   0.230   0.386   3.123
 1138SOL    HW1 3470   0.294   0.317   3.104
 1138SOL    HW2 3471   0.149   0.340   3.141
 1139SOL     OW 3472   0.450   1.079   4.250
 1139SOL    HW1 3473   0.425   1.058   4.160
 1139SOL    HW2 3474   0.379   1.044   4.304
 1140SOL     OW 3475   1.757   3.545   0.774
 1140SOL    HW1 3476   1.731   3.570   0.863
 1140SOL    HW2 3477   1.701   3.598   0.717
 1141SOL     OW 3478   2.288   2.666   4.007
 1141SOL    HW1 3479   2.351   2.616   4.059
 1141SOL    HW2 3480   2.330   2.676   3.922
 1142SOL     OW 3481   3.731   3.729   2.803
 1142SOL    HW1 3482   3.663   3.684   2.853
 1142SOL    HW2 3483   3.784   3.659   2.765
 1143SOL     OW 3484   2.143   4.441   0.022
 1143SOL    HW1 3485   2.183   4.428   4.902
 1143SOL    HW2 3486   2.048   4.437   0.005
 1144SOL     OW 3487   0.462   1.919   2.614
 1144SOL    HW1 3488   0.546   1.954   2.646
 1144SOL    HW2 3489   0.408   1.912   2.693
 1145SOL     OW 3490   4.023   0.518   2.337
 1145SOL    HW1 3491   3.988   0.429   2.334
 1145SOL    HW2 3492   4.033   0.538   2.430
 1146SOL     OW 3493   0.920   4.522   4.832
 1146SOL    HW1 3494   1.008   4.538   4.866
 1146SOL    HW2 3495   0.908   4.427   4.842
 1147SOL     OW 3496   2.054   2.180   4.316
 1147SOL    HW1 3497   2.027   2.232   4.391
 1147SOL    HW2 3498   2.011   2.222   4.241
 1148SOL     OW 3499   3.775   1.691   2.147
 1148SOL    HW1 3500   3.720   1.728   2.217
 1148SOL    HW2 3501   3.747   1.600   2.142
 1149SOL     OW 3502   3.543   1.931   3.379
 1149SOL    HW1 3503   3.527   1.988   3.303
 1149SOL    HW2 3504   3.625   1.886   3.358
 1150SOL     OW 3505   2.962   1.425   4.223
 1150SOL    HW1 3506   3.048   1.451   4.256
 1150SOL    HW2 3507   2.918   1.508   4.204
 1151SOL     OW 3508   3.071   2.144   4.232
 1151SOL    HW1 3509   3.109   2.056   4.239
 1151SOL    HW2 3510   3.145   2.202   4.219
 1152SOL     OW 3511   2.931   4.814   2.178
 1152SOL    HW1 3512   2.843   4.778   2.177
 1152SOL    HW2 3513   2.948   4.838   2.086
 1153SOL     OW 3514   0.194   1.511   2.149
 1153SOL    HW1 3515   0.110   1.480   2.183
 1153SOL    HW2 3516   0.183   1.513   2.054
 1154SOL     OW 3517   4.569   0.024   0.748
 1154SOL    HW1 3518   4.649   0.075   0.753
 1154SOL    HW2 3519   4.512   0.074   0.689
 1155SOL     OW 3520   0.036   0.471   0.598
 1155SOL    HW1 3521   4.965   0.406   0.538
 1155SOL    HW2 3522   0.004   0.445   0.684
 1156SOL     OW 3523   0.657   4.616   3.131
 1156SOL    HW1 3524   0.637   4.681   3.063
 1156SOL    HW2 3525   0.692   4.666   3.204
 1157SOL     OW 3526   3.917   4.166   3.767
 1157SOL    HW1 3527   3.835   4.199   3.729
 1157SOL    HW2 3528   3.982   4.178   3.699
 1158SOL     OW 3529   4.255   4.484   4.711
 1158SOL    HW1 3530   4.271   4.564   4.760
 1158SOL    HW2 3531   4.160   4.483   4.695
 1159SOL     OW 3532   1.652   2.441   3.393
 1159SOL    HW1 3533   1.648   2.485   3.308
 1159SOL    HW2 3534   1.716   2.492   3.443
 1160SOL     OW 3535   2.780   2.469   4.801
 1160SOL    HW1 3536   2.713   2.403   4.786
 1160SOL    HW2 3537   2.750   2.517   4.878
 1161SOL     OW 3538   2.363   4.928   3.699
 1161SOL    HW1 3539   2.397   0.033   3.645
 1161SOL    HW2 3540   2.317   0.006   3.771
 1162SOL     OW 3541   0.787   1.515   1.144
 1162SOL    HW1 3542   0.838   1.455   1.198
 1162SOL    HW2 3543   0.809   1.602   1.177
 1163SOL     OW 3544   3.528   1.652   1.933
 1163SOL    HW1 3545   3.498   1.696   2.012
 1163SOL    HW2 3546   3.588   1.584   1.964
 1164SOL     OW 3547   1.666   1.298   3.768
 1164SOL    HW1 3548   1.605   1.317   3.696
 1164SOL    HW2 3549   1.690   1.206   3.756
 1165SOL     OW 3550   1.961   0.374   4.617
 1165SOL    HW1 3551   2.029   0.429   4.656
 1165SOL    HW2 3552   1.994   0.354   4.529
 1166SOL     OW 3553   0.751   4.788   4.827
 1166SOL    HW1 3554   0.700   4.862   4.859
 1166SOL    HW2 3555   0.700   4.711   4.851
 1167SOL     OW 3556   3.956   1.600   2.583
 1167SOL    HW1 3557   4.021   1.670   2.587
 1167SOL    HW2 3558   3.992   1.530   2.637
 1168SOL     OW 3559   1.039   3.653   4.683
 1168SOL    HW1 3560   1.096   3.603   4.741
 1168SOL    HW2 3561   0.950   3.623   4.704
 1169SOL     OW 3562   1.343   1.803   4.084
 1169SOL    HW1 3563   1.366   1.895   4.070
 1169SOL    HW2 3564   1.290   1.780   4.008
 1170SOL     OW 3565   3.733   2.461   1.221
 1170SOL    HW1 3566   3.731   2.367   1.205
 1170SOL    HW2 3567   3.744   2.500   1.135
 1171SOL     OW 3568   0.437   1.204   1.848
 1171SOL    HW1 3569   0.361   1.193   1.905
 1171SOL    HW2 3570   0.440   1.124   1.796
 1172SOL     OW 3571   0.597   3.641   3.738
 1172SOL    HW1 3572   0.573   3.549   3.740
 1172SOL    HW2 3573   0.627   3.657   3.649
 1173SOL     OW 3574   1.806   2.690   1.609
 1173SOL    HW1 3575   1.712   2.694   1.625
 1173SOL    HW2 3576   1.817   2.732   1.523
 1174SOL     OW 3577   1.446   4.541   0.799
 1174SOL    HW1 3578   1.415   4.486   0.728
 1174SOL    HW2 3579   1.515   4.596   0.759
 1175SOL     OW 3580   3.198   3.823   1.978
 1175SOL    HW1 3581   3.161   3.906   2.008
 1175SOL    HW2 3582   3.269   3.805   2.039
 1176SOL     OW 3583   0.629   0.457   0.944
 1176SOL    HW1 3584   0.539   0.490   0.937
 1176SOL    HW2 3585   0.637   0.393   0.873
 1177SOL     OW 3586   0.413   3.970   0.132
 1177SOL    HW1 3587   0.474   3.941   0.064
 1177SOL    HW2 3588   0.341   3.907   0.129
 1178SOL     OW 3589   3.211   3.668   2.656
 1178SOL    HW1 3590   3.275   3.640   2.591
 1178SOL    HW2 3591   3.263   3.694   2.732
 1179SOL     OW 3592   4.145   1.011   4.225
 1179SOL    HW1 3593   4.195   0.931   4.204
 1179SOL    HW2 3594   4.203   1.059   4.284
 1180SOL     OW 3595   1.547   4.095   2.949
 1180SOL    HW1 3596   1.598   4.139   3.017
 1180SOL    HW2 3597   1.521   4.012   2.988
 1181SOL     OW 3598   3.360   0.180   0.248
 1181SOL    HW1 3599   3.440   0.230   0.265
 1181SOL    HW2 3600   3.290   0.237   0.278
 1182SOL     OW 3601   2.479   0.106   1.762
 1182SOL    HW1 3602   2.511   0.196   1.749
 1182SOL    HW2 3603   2.475   0.096   1.857
 1183SOL     OW 3604   1.567   1.680   1.562
 1183SOL    HW1 3605   1.627   1.609   1.581
 1183SOL    HW2 3606   1.569   1.735   1.640
 1184SOL     OW 3607   4.226   2.571   2.792
 1184SOL    HW1 3608   4.173   2.612   2.723
 1184SOL    HW2 3609   4.172   2.500   2.825
 1185SOL     OW 3610   0.184   2.754   1.459
 1185SOL    HW1 3611   0.137   2.682   1.500
 1185SOL    HW2 3612   0.211   2.720   1.373
 1186SOL     OW 3613   3.901   3.239   1.533
 1186SOL    HW1 3614   3.964   3.168   1.527
 1186SOL    HW2 3615   3.936   3.307   1.476
 1187SOL     OW 3616   4.917   2.347   1.678
 1187SOL    HW1 3617   4.825   2.323   1.667
 1187SOL    HW2 3618   4.964   2.264   1.672
 1188SOL     OW 3619   1.990   1.166   0.659
 1188SOL    HW1 3620   1.952   1.080   0.644
 1188SOL    HW2 3621   1.920   1.216   0.702
 1189SOL     OW 3622   4.608   2.534   2.400
 1189SOL    HW1 3623   4.641   2.459   2.350
 1189SOL    HW2 3624   4.687   2.576   2.434
 1190SOL     OW 3625   2.245   3.649   1.511
 1190SOL    HW1 3626   2.282   3.605   1.587
 1190SOL    HW2 3627   2.151   3.652   1.528
 1191SOL     OW 3628   3.059   1.882   1.807
 1191SOL    HW1 3629   3.111   1.828   1.748
 1191SOL    HW2 3630   2.969   1.856   1.791
 1192SOL     OW 3631   1.150   0.764   4.185
 1192SOL    HW1 3632   1.100   0.814   4.250
 1192SOL    HW2 3633   1.118   0.795   4.101
 1193SOL     OW 3634   1.414   0.970   2.959
 1193SOL    HW1 3635   1.470   1.030   2.909
 1193SOL    HW2 3636   1.466   0.890   2.965
 1194SOL     OW 3637   1.114   3.497   4.913
 1194SOL    HW1 3638   1.168   3.419   4.928
 1194SOL    HW2 3639   1.103   3.536   0.033
 1195SOL     OW 3640   2.714   2.824   1.063
 1195SOL    HW1 3641   2.679   2.779   1.140
 1195SOL    HW2 3642   2.759   2.756   1.014
 1196SOL     OW 3643   2.883   1.697   4.127
 1196SOL    HW1 3644   2.878   1.792   4.141
 1196SOL    HW2 3645   2.949   1.686   4.058
 1197SOL     OW 3646   4.152   1.072   4.721
 1197SOL    HW1 3647   4.214   1.098   4.789
 1197SOL    HW2 3648   4.144   0.977   4.730
 1198SOL     OW 3649   1.645   3.996   2.121
 1198SOL    HW1 3650   1.598   3.959   2.047
 1198SOL    HW2 3651   1.700   3.925   2.153
 1199SOL     OW 3652   3.546   4.196   3.135
 1199SOL    HW1 3653   3.516   4.232   3.051
 1199SOL    HW2 3654   3.641   4.190   3.126
 1200SOL     OW 3655   1.876   0.139   2.484
 1200SOL    HW1 3656   1.866   0.227   2.519
 1200SOL    HW2 3657   1.793   0.121   2.440
 1201SOL     OW 3658   1.730   4.822   1.961
 1201SOL    HW1 3659   1.672   4.747   1.951
 1201SOL    HW2 3660   1.813   4.784   1.991
 1202SOL     OW 3661   4.659   4.709   4.375
 1202SOL    HW1 3662   4.636   4.716   4.282
 1202SOL    HW2 3663   4.587   4.752   4.421
 1203SOL     OW 3664   0.527   3.708   4.471
 1203SOL    HW1 3665   0.468   3.695   4.398
 1203SOL    HW2 3666   0.479   3.765   4.531
 1204SOL     OW 3667   4.739   4.402   3.062
 1204SOL    HW1 3668   4.811   4.395   2.999
 1204SOL    HW2 3669   4.747   4.491   3.097
 1205SOL     OW 3670   1.972   2.879   2.545
 1205SOL    HW1 3671   2.037   2.948   2.531
 1205SOL    HW2 3672   1.915   2.884   2.468
 1206SOL     OW 3673   0.097   1.935   3.489
 1206SOL    HW1 3674   0.016   1.925   3.538
 1206SOL    HW2 3675   0.163   1.891   3.544
 1207SOL     OW 3676   4.439   0.495   3.451
 1207SOL    HW1 3677   4.427   0.583   3.488
 1207SOL    HW2 3678   4.353   0.454   3.460
 1208SOL     OW 3679   0.674   3.287   4.958
 1208SOL    HW1 3680   0.710   3.347   4.893
 1208SOL    HW2 3681   0.579   3.294   4.947
 1209SOL     OW 3682   1.238   3.382   1.596
 1209SOL    HW1 3683   1.209   3.380   1.505
 1209SOL    HW2 3684   1.259   3.474   1.612
 1210SOL     OW 3685   2.167   2.395   4.651
 1210SOL    HW1 3686   2.194   2.444   4.729
 1210SOL    HW2 3687   2.198   2.306   4.667
 1211SOL     OW 3688   2.130   2.675   1.261
 1211SOL    HW1 3689   2.145   2.584   1.288
 1211SOL    HW2 3690   2.139   2.726   1.342
 1212SOL     OW 3691   3.876   1.581   1.729
 1212SOL    HW1 3692   3.938   1.636   1.682
 1212SOL    HW2 3693   3.866   1.503   1.674
 1213SOL     OW 3694   2.211   0.142   1.681
 1213SOL    HW1 3695   2.299   0.105   1.678
 1213SOL    HW2 3696   2.223   0.234   1.658
 1214SOL     OW 3697   3.572   0.550   3.092
 1214SOL    HW1 3698   3.518   0.486   3.046
 1214SOL    HW2 3699   3.631   0.584   3.025
 1215SOL     OW 3700   0.884   4.803   2.054
 1215SOL    HW1 3701   0.867   4.896   2.039
 1215SOL    HW2 3702   0.979   4.795   2.055
 1216SOL     OW 3703   1.909   1.322   1.411
 1216SOL    HW1 3704   1.970   1.249   1.423
 1216SOL    HW2 3705   1.965   1.396   1.386
 1217SOL     OW 3706   3.052   2.750   1.389
 1217SOL    HW1 3707   3.132   2.698   1.391
 1217SOL    HW2 3708   3.012   2.738   1.475
 1218SOL     OW 3709   4.505   1.285   4.636
 1218SOL    HW1 3710   4.499   1.379   4.652
 1218SOL    HW2 3711   4.598   1.265   4.647
 1219SOL     OW 3712   4.253   0.367   3.828
 1219SOL    HW1 3713   4.228   0.349   3.919
 1219SOL    HW2 3714   4.209   0.449   3.807
 1220SOL     OW 3715   0.352   0.242   1.943
 1220SOL    HW1 3716   0.376   0.176   1.877
 1220SOL    HW2 3717   0.293   0.301   1.897
 1221SOL     OW 3718   0.141   1.932   1.472
 1221SOL    HW1 3719   0.234   1.926   1.450
 1221SOL    HW2 3720   0.097   1.943   1.388
 1222SOL     OW 3721   1.135   3.236   1.108
 1222SOL    HW1 3722   1.173   3.309   1.156
 1222SOL    HW2 3723   1.191   3.226   1.031
 1223SOL     OW 3724   0.622   1.145   1.197
 1223SOL    HW1 3725   0.595   1.207   1.129
 1223SOL    HW2 3726   0.685   1.088   1.153
 1224SOL     OW 3727   1.542   4.000   4.151
 1224SOL    HW1 3728   1.537   3.999   4.246
 1224SOL    HW2 3729   1.629   4.036   4.131
 1225SOL     OW 3730   3.138   0.850   4.378
 1225SOL    HW1 3731   3.182   0.805   4.306
 1225SOL    HW2 3732   3.152   0.943   4.360
 1226SOL     OW 3733   2.734   1.374   1.568
 1226SOL    HW1 3734   2.671   1.437   1.604
 1226SOL    HW2 3735   2.820   1.412   1.589
 1227SOL     OW 3736   3.257   2.646   2.447
 1227SOL    HW1 3737   3.232   2.573   2.505
 1227SOL    HW2 3738   3.202   2.719   2.476
 1228SOL     OW 3739   2.581   2.912   3.999
 1228SOL    HW1 3740   2.622   2.840   4.047
 1228SOL    HW2 3741   2.595   2.989   4.055
 1229SOL     OW 3742   2.435   2.198   2.499
 1229SOL    HW1 3743   2.475   2.141   2.566
 1229SOL    HW2 3744   2.502   2.263   2.481
 1230SOL     OW 3745   2.196   0.690   1.016
 1230SOL    HW1 3746   2.225   0.754   0.951
 1230SOL    HW2 3747   2.231   0.723   1.099
 1231SOL     OW 3748   3.124   1.160   4.606
 1231SOL    HW1 3749   3.218   1.156   4.628
 1231SOL    HW2 3750   3.122   1.168   4.511
 1232SOL     OW 3751   0.710   0.864   1.714
 1232SOL    HW1 3752   0.749   0.918   1.783
 1232SOL    HW2 3753   0.734   0.907   1.632
 1233SOL     OW 3754   2.746   1.070   1.345
 1233SOL    HW1 3755   2.781   1.070   1.435
 1233SOL    HW2 3756   2.667   1.123   1.350
 1234SOL     OW 3757   2.573   0.967   1.032
 1234SOL    HW1 3758   2.568   0.900   1.100
 1234SOL    HW2 3759   2.601   0.921   0.954
 1235SOL     OW 3760   4.024   2.319   3.161
 1235SOL    HW1 3761   4.036   2.308   3.066
 1235SOL    HW2 3762   4.017   2.229   3.194
 1236SOL     OW 3763   4.010   4.070   1.090
 1236SOL    HW1 3764   4.079   4.110   1.038
 1236SOL    HW2 3765   3.996   4.131   1.162
 1237SOL     OW 3766   4.809   3.687   1.427
 1237SOL    HW1 3767   4.767   3.638   1.497
 1237SOL    HW2 3768   4.850   3.621   1.372
 1238SOL     OW 3769   4.758   4.738   3.277
 1238SOL    HW1 3770   4.829   4.740   3.213
 1238SOL    HW2 3771   4.790   4.679   3.346
 1239SOL     OW 3772   2.204   4.453   3.084
 1239SOL    HW1 3773   2.293   4.422   3.099
 1239SOL    HW2 3774   2.148   4.377   3.102
 1240SOL     OW 3775   2.569   2.914   2.357
 1240SOL    HW1 3776   2.524   2.990   2.319
 1240SOL    HW2 3777   2.541   2.912   2.448
 1241SOL     OW 3778   3.604   1.557   4.365
 1241SOL    HW1 3779   3.675   1.511   4.410
 1241SOL    HW2 3780   3.624   1.650   4.376
 1242SOL     OW 3781   3.176   4.672   4.082
 1242SOL    HW1 3782   3.251   4.624   4.047
 1242SOL    HW2 3783   3.200   4.764   4.072
 1243SOL     OW 3784   3.076   1.901   1.089
 1243SOL    HW1 3785   3.159   1.908   1.137
 1243SOL    HW2 3786   3.069   1.808   1.067
 1244SOL     OW 3787   1.139   2.326   4.306
 1244SOL    HW1 3788   1.158   2.371   4.389
 1244SOL    HW2 3789   1.186   2.376   4.240
 1245SOL     OW 3790   4.429   2.009   0.705
 1245SOL    HW1 3791   4.409   1.931   0.757
 1245SOL    HW2 3792   4.487   2.061   0.762
 1246SOL     OW 3793   0.323   3.902   2.886
 1246SOL    HW1 3794   0.388   3.839   2.918
 1246SOL    HW2 3795   0.363   3.987   2.903
 1247SOL     OW 3796   1.832   4.394   4.620
 1247SOL    HW1 3797   1.767   4.464   4.624
 1247SOL    HW2 3798   1.916   4.438   4.622
 1248SOL     OW 3799   4.031   2.351   2.879
 1248SOL    HW1 3800   3.996   2.274   2.834
 1248SOL    HW2 3801   3.958   2.413   2.879
 1249SOL     OW 3802   4.074   4.831   0.256
 1249SOL    HW1 3803   4.114   4.755   0.216
 1249SOL    HW2 3804   4.136   4.902   0.242
 1250SOL     OW 3805   0.141   3.817   1.841
 1250SOL    HW1 3806   0.080   3.864   1.784
 1250SOL    HW2 3807   0.135   3.862   1.925
 1251SOL     OW 3808   2.363   0.314   1.419
 1251SOL    HW1 3809   2.358   0.234   1.367
 1251SOL    HW2 3810   2.385   0.383   1.356
 1252SOL     OW 3811   2.605   4.062   1.405
 1252SOL    HW1 3812   2.568   4.002   1.471
 1252SOL    HW2 3813   2.699   4.043   1.406
 1253SOL     OW 3814   1.656   4.954   3.084
 1253SOL    HW1 3815   1.655   4.946   3.180
 1253SOL    HW2 3816   1.710   4.881   3.055
 1254SOL     OW 3817   2.592   4.371   3.458
 1254SOL    HW1 3818   2.627   4.457   3.435
 1254SOL    HW2 3819   2.513   4.362   3.404
 1255SOL     OW 3820   4.578   0.392   0.821
 1255SOL    HW1 3821   4.576   0.487   0.809
 1255SOL    HW2 3822   4.669   0.372   0.839
 1256SOL     OW 3823   0.663   1.175   0.910
 1256SOL    HW1 3824   0.680   1.164   0.816
 1256SOL    HW2 3825   0.601   1.248   0.914
 1257SOL     OW 3826   2.173   0.781   4.273
 1257SOL    HW1 3827   2.201   0.867   4.303
 1257SOL    HW2 3828   2.253   0.728   4.273
 1258SOL     OW 3829   1.112   0.240   1.987
 1258SOL    HW1 3830   1.110   0.250   2.082
 1258SOL    HW2 3831   1.101   0.329   1.953
 1259SOL     OW 3832   1.254   0.616   4.768
 1259SOL    HW1 3833   1.261   0.654   4.680
 1259SOL    HW2 3834   1.343   0.620   4.803
 1260SOL     OW 3835   1.796   1.928   3.408
 1260SOL    HW1 3836   1.768   1.988   3.477
 1260SOL    HW2 3837   1.716   1.880   3.385
 1261SOL     OW 3838   4.601   4.070   1.162
 1261SOL    HW1 3839   4.647   3.994   1.125
 1261SOL    HW2 3840   4.575   4.122   1.086
 1262SOL     OW 3841   0.539   4.350   0.507
 1262SOL    HW1 3842   0.488   4.431   0.497
 1262SOL    HW2 3843   0.613   4.361   0.447
 1263SOL     OW 3844   0.528   2.598   0.147
 1263SOL    HW1 3845   0.580   2.551   0.213
 1263SOL    HW2 3846   0.445   2.550   0.145
 1264SOL     OW 3847   0.156   3.504   4.056
 1264SOL    HW1 3848   0.191   3.416   4.064
 1264SOL    HW2 3849   0.219   3.550   4.000
 1265SOL     OW 3850   1.432   0.450   2.919
 1265SOL    HW1 3851   1.473   0.513   2.860
 1265SOL    HW2 3852   1.347   0.431   2.879
 1266SOL     OW 3853   3.739   3.605   0.744
 1266SOL    HW1 3854   3.696   3.591   0.828
 1266SOL    HW2 3855   3.709   3.531   0.690
 1267SOL     OW 3856   2.957   1.598   1.089
 1267SOL    HW1 3857   2.956   1.558   1.002
 1267SOL    HW2 3858   2.916   1.533   1.146
 1268SOL     OW 3859   0.833   2.798   4.530
 1268SOL    HW1 3860   0.786   2.714   4.523
 1268SOL    HW2 3861   0.903   2.781   4.593
 1269SOL     OW 3862   0.900   0.350   0.591
 1269SOL    HW1 3863   0.924   0.331   0.501
 1269SOL    HW2 3864   0.955   0.292   0.644
 1270SOL     OW 3865   0.942   1.613   4.480
 1270SOL    HW1 3866   0.848   1.609   4.464
 1270SOL    HW2 3867   0.981   1.606   4.392
 1271SOL     OW 3868   1.438   3.110   4.377
 1271SOL    HW1 3869   1.404   3.034   4.330
 1271SOL    HW2 3870   1.421   3.091   4.469
 1272SOL     OW 3871   1.406   3.318   1.901
 1272SOL    HW1 3872   1.376   3.408   1.915
 1272SOL    HW2 3873   1.453   3.295   1.981
 1273SOL     OW 3874   0.743   0.692   1.005
 1273SOL    HW1 3875   0.785   0.720   0.924
 1273SOL    HW2 3876   0.739   0.597   0.999
 1274SOL     OW 3877   4.471   0.362   0.151
 1274SOL    HW1 3878   4.391   0.321   0.184
 1274SOL    HW2 3879   4.509   0.406   0.227
 1275SOL     OW 3880   1.308   1.520   3.093
 1275SOL    HW1 3881   1.294   1.438   3.141
 1275SOL    HW2 3882   1.335   1.583   3.161
 1276SOL     OW 3883   3.647   4.334   2.008
 1276SOL    HW1 3884   3.697   4.253   1.994
 1276SOL    HW2 3885   3.569   4.324   1.953
 1277SOL     OW 3886   1.549   3.764   3.564
 1277SOL    HW1 3887   1.497   3.761   3.484
 1277SOL    HW2 3888   1.581   3.854   3.569
 1278SOL     OW 3889   1.750   0.237   2.757
 1278SOL    HW1 3890   1.659   0.245   2.786
 1278SOL    HW2 3891   1.764   0.143   2.748
 1279SOL     OW 3892   3.208   4.517   4.436
 1279SOL    HW1 3893   3.125   4.542   4.477
 1279SOL    HW2 3894   3.246   4.600   4.407
 1280SOL     OW 3895   0.689   1.759   4.605
 1280SOL    HW1 3896   0.603   1.751   4.563
 1280SOL    HW2 3897   0.705   1.853   4.611
 1281SOL     OW 3898   2.278   4.542   0.493
 1281SOL    HW1 3899   2.337   4.470   0.472
 1281SOL    HW2 3900   2.255   4.580   0.408
 1282SOL     OW 3901   0.919   1.239   2.072
 1282SOL    HW1 3902   0.928   1.144   2.066
 1282SOL    HW2 3903   0.824   1.254   2.068
 1283SOL     OW 3904   3.382   1.412   2.218
 1283SOL    HW1 3905   3.403   1.420   2.125
 1283SOL    HW2 3906   3.311   1.347   2.221
 1284SOL     OW 3907   1.913   4.424   1.631
 1284SOL    HW1 3908   1.937   4.348   1.578
 1284SOL    HW2 3909   1.900   4.388   1.719
 1285SOL     OW 3910   4.563   0.958   4.676
 1285SOL    HW1 3911   4.631   0.890   4.684
 1285SOL    HW2 3912   4.595   1.015   4.607
 1286SOL     OW 3913   0.128   1.672   0.242
 1286SOL    HW1 3914   0.173   1.755   0.225
 1286SOL    HW2 3915   0.044   1.698   0.278
 1287SOL     OW 3916   3.116   1.630   3.978
 1287SOL    HW1 3917   3.180   1.604   4.044
 1287SOL    HW2 3918   3.168   1.672   3.909
 1288SOL     OW 3919   1.091   0.912   0.982
 1288SOL    HW1 3920   1.182   0.903   1.010
 1288SOL    HW2 3921   1.095   0.967   0.904
 1289SOL     OW 3922   4.161   1.731   2.662
 1289SOL    HW1 3923   4.121   1.715   2.747
 1289SOL    HW2 3924   4.255   1.735   2.681
 1290SOL     OW 3925   1.834   1.924   1.425
 1290SOL    HW1 3926   1.785   1.983   1.368
 1290SOL    HW2 3927   1.922   1.961   1.428
 1291SOL     OW 3928   4.895   3.037   3.173
 1291SOL    HW1 3929   4.834   3.028   3.247
 1291SOL    HW2 3930   4.838   3.044   3.097
 1292SOL     OW 3931   2.842   2.902   0.540
 1292SOL    HW1 3932   2.777   2.971   0.532
 1292SOL    HW2 3933   2.853   2.890   0.635
 1293SOL     OW 3934   4.588   2.354   4.400
 1293SOL    HW1 3935   4.617   2.421   4.338
 1293SOL    HW2 3936   4.499   2.333   4.372
 1294SOL     OW 3937   0.106   4.758   1.654
 1294SOL    HW1 3938   0.022   4.747   1.698
 1294SOL    HW2 3939   0.138   4.668   1.641
 1295SOL     OW 3940   0.815   2.786   2.531
 1295SOL    HW1 3941   0.807   2.734   2.611
 1295SOL    HW2 3942   0.833   2.721   2.463
 1296SOL     OW 3943   1.420   3.395   4.209
 1296SOL    HW1 3944   1.414   3.485   4.176
 1296SOL    HW2 3945   1.334   3.377   4.245
 1297SOL     OW 3946   3.697   0.316   4.278
 1297SOL    HW1 3947   3.620   0.284   4.230
 1297SOL    HW2 3948   3.721   0.244   4.335
 1298SOL     OW 3949   4.489   2.618   3.922
 1298SOL    HW1 3950   4.482   2.701   3.969
 1298SOL    HW2 3951   4.498   2.642   3.830
 1299SOL     OW 3952   3.418   1.951   0.815
 1299SOL    HW1 3953   3.505   1.989   0.820
 1299SOL    HW2 3954   3.366   2.016   0.768
 1300SOL     OW 3955   0.625   0.587   1.603
 1300SOL    HW1 3956   0.551   0.593   1.664
 1300SOL    HW2 3957   0.687   0.653   1.633
 1301SOL     OW 3958   2.160   0.235   0.776
 1301SOL    HW1 3959   2.105   0.179   0.831
 1301SOL    HW2 3960   2.250   0.212   0.801
 1302SOL     OW 3961   3.737   0.611   0.434
 1302SOL    HW1 3962   3.658   0.654   0.402
 1302SOL    HW2 3963   3.739   0.526   0.389
 1303SOL     OW 3964   3.370   3.463   4.288
 1303SOL    HW1 3965   3.292   3.489   4.238
 1303SOL    HW2 3966   3.363   3.368   4.295
 1304SOL     OW 3967   3.875   3.403   1.759
 1304SOL    HW1 3968   3.861   3.486   1.715
 1304SOL    HW2 3969   3.877   3.338   1.689
 1305SOL     OW 3970   2.487   1.729   3.991
 1305SOL    HW1 3971   2.420   1.701   4.054
 1305SOL    HW2 3972   2.445   1.799   3.941
 1306SOL     OW 3973   3.916   4.062   3.368
 1306SOL    HW1 3974   3.917   4.089   3.276
 1306SOL    HW2 3975   3.849   4.117   3.408
 1307SOL     OW 3976   3.998   1.402   0.943
 1307SOL    HW1 3977   3.920   1.349   0.955
 1307SOL    HW2 3978   4.069   1.339   0.935
 1308SOL     OW 3979   1.336   0.106   3.468
 1308SOL    HW1 3980   1.241   0.096   3.456
 1308SOL    HW2 3981   1.368   0.016   3.478
 1309SOL     OW 3982   2.499   1.480   1.070
 1309SOL    HW1 3983   2.493   1.388   1.043
 1309SOL    HW2 3984   2.435   1.525   1.014
 1310SOL     OW 3985   1.911   3.549   2.662
 1310SOL    HW1 3986   1.988   3.606   2.662
 1310SOL    HW2 3987   1.916   3.502   2.746
 1311SOL     OW 3988   1.743   1.480   0.604
 1311SOL    HW1 3989   1.836   1.500   0.597
 1311SOL    HW2 3990   1.740   1.399   0.656
 1312SOL     OW 3991   1.132   3.124   2.100
 1312SOL    HW1 3992   1.154   3.212   2.132
 1312SOL    HW2 3993   1.133   3.132   2.005
 1313SOL     OW 3994   2.642   3.135   2.712
 1313SOL    HW1 3995   2.723   3.168   2.674
 1313SOL    HW2 3996   2.596   3.214   2.742
 1314SOL     OW 3997   0.517   2.040   3.945
 1314SOL    HW1 3998   0.600   2.067   3.985
 1314SOL    HW2 3999   0.473   1.989   4.013
 1315SOL     OW 4000   0.441   1.674   0.610
 1315SOL    HW1 4001   0.362   1.717   0.577
 1315SOL    HW2 4002   0.411   1.588   0.640
 1316SOL     OW 4003   1.076   2.293   0.767
 1316SOL    HW1 4004   0.983   2.287   0.788
 1316SOL    HW2 4005   1.080   2.336   0.682
 1317SOL     OW 4006   4.087   2.334   0.202
 1317SOL    HW1 4007   4.127   2.250   0.227
 1317SOL    HW2 4008   4.039   2.315   0.122
 1318SOL     OW 4009   4.031   4.405   0.950
 1318SOL    HW1 4010   4.114   4.369   0.982
 1318SOL    HW2 4011   4.055   4.459   0.875
 1319SOL     OW 4012   3.216   4.965   3.862
 1319SOL    HW1 4013   3.123   4.953   3.880
 1319SOL    HW2 4014   3.233   4.910   3.786
 1320SOL     OW 4015   1.826   1.822   0.092
 1320SOL    HW1 4016   1.909   1.824   0.139
 1320SOL    HW2 4017   1.849   1.794   0.003
 1321SOL     OW 4018   3.796   1.810   0.504
 1321SOL    HW1 4019   3.814   1.718   0.523
 1321SOL    HW2 4020   3.704   1.822   0.528
 1322SOL     OW 4021   2.115   3.850   3.771
 1322SOL    HW1 4022   2.119   3.924   3.831
 1322SOL    HW2 4023   2.029   3.858   3.730
 1323SOL     OW 4024   4.516   0.327   1.862
 1323SOL    HW1 4025   4.572   0.375   1.923
 1323SOL    HW2 4026   4.565   0.247   1.842
 1324SOL     OW 4027   1.985   0.151   4.436
 1324SOL    HW1 4028   2.006   0.212   4.365
 1324SOL    HW2 4029   1.897   0.177   4.464
 1325SOL     OW 4030   0.238   1.557   1.448
 1325SOL    HW1 4031   0.306   1.509   1.495
 1325SOL    HW2 4032   0.286   1.623   1.398
 1326SOL     OW 4033   4.678   2.938   1.949
 1326SOL    HW1 4034   4.733   2.946   1.871
 1326SOL    HW2 4035   4.590   2.921   1.914
 1327SOL     OW 4036   4.906   4.710   0.672
 1327SOL    HW1 4037   4.839   4.724   0.606
 1327SOL    HW2 4038   0.002   4.781   0.658
 1328SOL     OW 4039   3.569   3.002   2.345
 1328SOL    HW1 4040   3.502   3.023   2.409
 1328SOL    HW2 4041   3.648   2.984   2.397
 1329SOL     OW 4042   4.432   4.136   3.503
 1329SOL    HW1 4043   4.493   4.075   3.544
 1329SOL    HW2 4044   4.351   4.086   3.493
 1330SOL     OW 4045   2.823   4.340   3.586
 1330SOL    HW1 4046   2.895   4.351   3.525
 1330SOL    HW2 4047   2.745   4.368   3.537
 1331SOL     OW 4048   2.925   1.913   0.763
 1331SOL    HW1 4049   2.899   2.005   0.761
 1331SOL    HW2 4050   2.984   1.907   0.838
 1332SOL     OW 4051   3.711   2.863   4.316
 1332SOL    HW1 4052   3.634   2.860   4.260
 1332SOL    HW2 4053   3.747   2.775   4.312
 1333SOL     OW 4054   1.668   0.790   0.969
 1333SOL    HW1 4055   1.631   0.709   0.934
 1333SOL    HW2 4056   1.718   0.762   1.046
 1334SOL     OW 4057   3.990   1.956   1.904
 1334SOL    HW1 4058   3.998   1.861   1.895
 1334SOL    HW2 4059   4.067   1.991   1.860
 1335SOL     OW 4060   2.909   0.467   4.644
 1335SOL    HW1 4061   2.966   0.400   4.606
 1335SOL    HW2 4062   2.964   0.512   4.709
 1336SOL     OW 4063   2.154   3.340   3.655
 1336SOL    HW1 4064   2.123   3.256   3.687
 1336SOL    HW2 4065   2.246   3.344   3.683
 1337SOL     OW 4066   2.079   3.641   1.768
 1337SOL    HW1 4067   2.069   3.665   1.861
 1337SOL    HW2 4068   2.032   3.558   1.760
 1338SOL     OW 4069   1.226   2.502   0.903
 1338SOL    HW1 4070   1.173   2.427   0.879
 1338SOL    HW2 4071   1.300   2.465   0.952
 1339SOL     OW 4072   4.512   0.669   2.108
 1339SOL    HW1 4073   4.506   0.707   2.195
 1339SOL    HW2 4074   4.437   0.609   2.103
 1340SOL     OW 4075   3.526   3.548   1.648
 1340SOL    HW1 4076   3.496   3.497   1.723
 1340SOL    HW2 4077   3.619   3.563   1.665
 1341SOL     OW 4078   3.456   0.784   2.436
 1341SOL    HW1 4079   3.431   0.826   2.353
 1341SOL    HW2 4080   3.373   0.754   2.473
 1342SOL     OW 4081   1.119   4.239   2.190
 1342SOL    HW1 4082   1.214   4.236   2.189
 1342SOL    HW2 4083   1.093   4.210   2.102
 1343SOL     OW 4084   2.790   0.203   2.259
 1343SOL    HW1 4085   2.747   0.121   2.233
 1343SOL    HW2 4086   2.777   0.262   2.185
 1344SOL     OW 4087   2.270   4.790   1.660
 1344SOL    HW1 4088   2.278   4.842   1.580
 1344SOL    HW2 4089   2.229   4.709   1.632
 1345SOL     OW 4090   0.960   0.805   3.502
 1345SOL    HW1 4091   0.869   0.827   3.480
 1345SOL    HW2 4092   0.998   0.775   3.420
 1346SOL     OW 4093   3.788   4.166   4.632
 1346SOL    HW1 4094   3.797   4.207   4.546
 1346SOL    HW2 4095   3.849   4.092   4.630
 1347SOL     OW 4096   1.819   2.840   2.766
 1347SOL    HW1 4097   1.878   2.853   2.692
 1347SOL    HW2 4098   1.840   2.752   2.798
 1348SOL     OW 4099   2.516   0.826   4.758
 1348SOL    HW1 4100   2.442   0.776   4.792
 1348SOL    HW2 4101   2.574   0.760   4.721
 1349SOL     OW 4102   3.229   0.946   1.981
 1349SOL    HW1 4103   3.178   0.866   1.985
 1349SOL    HW2 4104   3.198   0.998   2.056
 1350SOL     OW 4105   3.694   3.982   0.202
 1350SOL    HW1 4106   3.766   3.939   0.248
 1350SOL    HW2 4107   3.619   3.970   0.260
 1351SOL     OW 4108   2.714   0.648   2.761
 1351SOL    HW1 4109   2.749   0.560   2.778
 1351SOL    HW2 4110   2.686   0.680   2.846
 1352SOL     OW 4111   0.103   3.665   0.658
 1352SOL    HW1 4112   0.092   3.728   0.586
 1352SOL    HW2 4113   0.101   3.579   0.616
 1353SOL     OW 4114   2.088   4.629   2.323
 1353SOL    HW1 4115   2.119   4.619   2.233
 1353SOL    HW2 4116   2.098   4.542   2.362
 1354SOL     OW 4117   0.527   3.268   0.400
 1354SOL    HW1 4118   0.496   3.179   0.382
 1354SOL    HW2 4119   0.604   3.278   0.345
 1355SOL     OW 4120   3.716   0.036   2.603
 1355SOL    HW1 4121   3.801   4.960   2.608
 1355SOL    HW2 4122   3.677   0.021   2.690
 1356SOL     OW 4123   0.650   3.959   1.823
 1356SOL    HW1 4124   0.690   3.979   1.738
 1356SOL    HW2 4125   0.717   3.982   1.887
 1357SOL     OW 4126   3.930   3.798   4.868
 1357SOL    HW1 4127   4.012   3.822   4.826
 1357SOL    HW2 4128   3.884   3.881   4.881
 1358SOL     OW 4129   1.482   2.241   3.250
 1358SOL    HW1 4130   1.522   2.296   3.317
 1358SOL    HW2 4131   1.423   2.183   3.299
 1359SOL     OW 4132   1.393   1.196   3.882
 1359SOL    HW1 4133   1.465   1.163   3.937
 1359SOL    HW2 4134   1.319   1.204   3.943
 1360SOL     OW 4135   2.702   3.120   3.212
 1360SOL    HW1 4136   2.615   3.089   3.187
 1360SOL    HW2 4137   2.686   3.202   3.260
 1361SOL     OW 4138   1.580   2.822   2.580
 1361SOL    HW1 4139   1.623   2.779   2.654
 1361SOL    HW2 4140   1.507   2.870   2.619
 1362SOL     OW 4141   3.722   1.942   1.969
 1362SOL    HW1 4142   3.748   1.869   2.026
 1362SOL    HW2 4143   3.803   1.972   1.930
 1363SOL     OW 4144   0.537   0.397   2.975
 1363SOL    HW1 4145   0.535   0.330   3.043
 1363SOL    HW2 4146   0.567   0.351   2.896
 1364SOL     OW 4147   0.530   3.340   3.230
 1364SOL    HW1 4148   0.609   3.292   3.258
 1364SOL    HW2 4149   0.561   3.429   3.214
 1365SOL     OW 4150   2.854   1.975   4.161
 1365SOL    HW1 4151   2.933   2.023   4.183
 1365SOL    HW2 4152   2.812   2.026   4.092
 1366SOL     OW 4153   0.506   1.987   2.247
 1366SOL    HW1 4154   0.431   1.931   2.265
 1366SOL    HW2 4155   0.582   1.932   2.264
 1367SOL     OW 4156   2.184   3.688   2.615
 1367SOL    HW1 4157   2.122   3.739   2.667
 1367SOL    HW2 4158   2.261   3.744   2.608
 1368SOL     OW 4159   0.980   2.492   0.321
 1368SOL    HW1 4160   1.054   2.443   0.357
 1368SOL    HW2 4161   0.985   2.578   0.362
 1369SOL     OW 4162   2.728   4.695   4.548
 1369SOL    HW1 4163   2.673   4.759   4.503
 1369SOL    HW2 4164   2.730   4.725   4.639
 1370SOL     OW 4165   1.384   2.349   1.616
 1370SOL    HW1 4166   1.357   2.421   1.560
 1370SOL    HW2 4167   1.347   2.370   1.702
 1371SOL     OW 4168   2.790   1.963   0.382
 1371SOL    HW1 4169   2.749   2.018   0.448
 1371SOL    HW2 4170   2.862   1.919   0.428
 1372SOL     OW 4171   1.439   3.981   3.811
 1372SOL    HW1 4172   1.376   4.034   3.862
 1372SOL    HW2 4173   1.384   3.923   3.759
 1373SOL     OW 4174   1.105   1.436   4.619
 1373SOL    HW1 4175   1.194   1.465   4.637
 1373SOL    HW2 4176   1.063   1.512   4.579
 1374SOL     OW 4177   3.792   3.800   3.320
 1374SOL    HW1 4178   3.728   3.816   3.251
 1374SOL    HW2 4179   3.838   3.883   3.330
 1375SOL     OW 4180   0.019   2.959   1.499
 1375SOL    HW1 4181   4.899   2.947   1.459
 1375SOL    HW2 4182   0.061   2.873   1.490
 1376SOL     OW 4183   4.096   1.562   3.709
 1376SOL    HW1 4184   4.100   1.519   3.795
 1376SOL    HW2 4185   4.008   1.543   3.677
 1377SOL     OW 4186   0.389   3.209   2.950
 1377SOL    HW1 4187   0.337   3.193   3.029
 1377SOL    HW2 4188   0.337   3.172   2.879
 1378SOL     OW 4189   3.080   3.654   3.152
 1378SOL    HW1 4190   3.051   3.571   3.114
 1378SOL    HW2 4191   3.173   3.659   3.131
 1379SOL     OW 4192   4.924   0.340   4.730
 1379SOL    HW1 4193   0.006   0.417   4.701
 1379SOL    HW2 4194   0.024   0.271   4.737
 1380SOL     OW 4195   4.189   4.270   2.833
 1380SOL    HW1 4196   4.233   4.283   2.749
 1380SOL    HW2 4197   4.245   4.208   2.880
 1381SOL     OW 4198   4.268   2.403   2.435
 1381SOL    HW1 4199   4.288   2.473   2.373
 1381SOL    HW2 4200   4.184   2.428   2.474
 1382SOL     OW 4201   2.653   4.848   2.689
 1382SOL    HW1 4202   2.617   4.809   2.609
 1382SOL    HW2 4203   2.586   4.833   2.755
 1383SOL     OW 4204   3.790   3.482   2.674
 1383SOL    HW1 4205   3.876   3.446   2.693
 1383SOL    HW2 4206   3.731   3.407   2.680
 1384SOL     OW 4207   2.871   1.341   3.595
 1384SOL    HW1 4208   2.871   1.421   3.647
 1384SOL    HW2 4209   2.779   1.327   3.573
 1385SOL     OW 4210   1.449   3.030   4.634
 1385SOL    HW1 4211   1.361   2.994   4.645
 1385SOL    HW2 4212   1.507   2.954   4.644
 1386SOL     OW 4213   3.948   0.488   1.576
 1386SOL    HW1 4214   3.918   0.578   1.581
 1386SOL    HW2 4215   3.896   0.449   1.505
 1387SOL     OW 4216   0.893   1.402   0.087
 1387SOL    HW1 4217   0.831   1.425   0.157
 1387SOL    HW2 4218   0.845   1.417   0.006
 1388SOL     OW 4219   1.731   3.417   0.458
 1388SOL    HW1 4220   1.769   3.408   0.545
 1388SOL    HW2 4221   1.655   3.473   0.470
 1389SOL     OW 4222   2.661   1.511   1.927
 1389SOL    HW1 4223   2.617   1.463   1.998
 1389SOL    HW2 4224   2.743   1.542   1.966
 1390SOL     OW 4225   0.949   4.787   1.288
 1390SOL    HW1 4226   0.897   4.776   1.368
 1390SOL    HW2 4227   0.896   4.845   1.233
 1391SOL     OW 4228   2.856   3.736   1.839
 1391SOL    HW1 4229   2.773   3.742   1.792
 1391SOL    HW2 4230   2.921   3.772   1.778
 1392SOL     OW 4231   1.652   1.875   4.728
 1392SOL    HW1 4232   1.584   1.824   4.773
 1392SOL    HW2 4233   1.631   1.865   4.635
 1393SOL     OW 4234   0.725   1.994   2.674
 1393SOL    HW1 4235   0.709   2.084   2.703
 1393SOL    HW2 4236   0.759   1.950   2.752
 1394SOL     OW 4237   1.736   4.057   2.532
 1394SOL    HW1 4238   1.764   4.112   2.459
 1394SOL    HW2 4239   1.687   4.115   2.589
 1395SOL     OW 4240   2.002   0.592   2.955
 1395SOL    HW1 4241   2.060   0.552   3.020
 1395SOL    HW2 4242   1.928   0.532   2.948
 1396SOL     OW 4243   3.239   1.671   3.736
 1396SOL    HW1 4244   3.251   1.741   3.671
 1396SOL    HW2 4245   3.198   1.600   3.687
 1397SOL     OW 4246   3.104   2.251   3.397
 1397SOL    HW1 4247   3.034   2.290   3.345
 1397SOL    HW2 4248   3.125   2.317   3.463
 1398SOL     OW 4249   2.249   4.041   1.779
 1398SOL    HW1 4250   2.224   4.070   1.867
 1398SOL    HW2 4251   2.332   4.086   1.761
 1399SOL     OW 4252   2.940   0.986   1.165
 1399SOL    HW1 4253   2.913   1.018   1.079
 1399SOL    HW2 4254   2.868   1.008   1.223
 1400SOL     OW 4255   0.899   3.216   4.013
 1400SOL    HW1 4256   0.930   3.306   4.024
 1400SOL    HW2 4257   0.968   3.161   4.051
 1401SOL     OW 4258   3.785   2.110   2.521
 1401SOL    HW1 4259   3.793   2.069   2.435
 1401SOL    HW2 4260   3.715   2.061   2.565
 1402SOL     OW 4261   1.689   4.255   3.147
 1402SOL    HW1 4262   1.675   4.344   3.115
 1402SOL    HW2 4263   1.667   4.259   3.240
 1403SOL     OW 4264   0.091   3.949   3.458
 1403SOL    HW1 4265   0.160   3.888   3.430
 1403SOL    HW2 4266   0.069   3.998   3.378
 1404SOL     OW 4267   1.991   2.079   3.936
 1404SOL    HW1 4268   2.036   2.129   3.868
 1404SOL    HW2 4269   1.908   2.125   3.949
 1405SOL     OW 4270   0.142   0.305   4.457
 1405SOL    HW1 4271   0.130   0.315   4.552
 1405SOL    HW2 4272   0.087   0.373   4.419
 1406SOL     OW 4273   2.479   0.140   2.091
 1406SOL    HW1 4274   2.542   0.207   2.068
 1406SOL    HW2 4275   2.524   0.086   2.157
 1407SOL     OW 4276   0.634   1.267   2.047
 1407SOL    HW1 4277   0.620   1.198   2.113
 1407SOL    HW2 4278   0.565   1.251   1.982
 1408SOL     OW 4279   0.872   2.027   2.417
 1408SOL    HW1 4280   0.875   2.118   2.386
 1408SOL    HW2 4281   0.837   2.033   2.506
 1409SOL     OW 4282   2.667   1.977   3.257
 1409SOL    HW1 4283   2.705   1.898   3.219
 1409SOL    HW2 4284   2.574   1.956   3.268
 1410SOL     OW 4285   2.886   0.752   4.344
 1410SOL    HW1 4286   2.969   0.794   4.365
 1410SOL    HW2 4287   2.910   0.677   4.290
 1411SOL     OW 4288   2.611   4.163   3.082
 1411SOL    HW1 4289   2.531   4.195   3.041
 1411SOL    HW2 4290   2.659   4.243   3.105
 1412SOL     OW 4291   4.118   2.510   3.862
 1412SOL    HW1 4292   4.085   2.600   3.855
 1412SOL    HW2 4293   4.104   2.473   3.775
 1413SOL     OW 4294   0.361   2.756   0.322
 1413SOL    HW1 4295   0.320   2.835   0.287
 1413SOL    HW2 4296   0.416   2.724   0.251
 1414SOL     OW 4297   1.897   3.819   2.578
 1414SOL    HW1 4298   1.873   3.729   2.599
 1414SOL    HW2 4299   1.814   3.867   2.582
 1415SOL     OW 4300   4.759   3.597   3.387
 1415SOL    HW1 4301   4.790   3.506   3.385
 1415SOL    HW2 4302   4.807   3.640   3.316
 1416SOL     OW 4303   0.127   2.196   0.740
 1416SOL    HW1 4304   0.207   2.211   0.690
 1416SOL    HW2 4305   0.057   2.230   0.683
 1417SOL     OW 4306   3.340   4.632   0.375
 1417SOL    HW1 4307   3.278   4.698   0.406
 1417SOL    HW2 4308   3.426   4.671   0.390
 1418SOL     OW 4309   1.998   1.236   3.941
 1418SOL    HW1 4310   1.941   1.268   4.011
 1418SOL    HW2 4311   1.971   1.284   3.863
 1419SOL     OW 4312   0.644   4.232   1.944
 1419SOL    HW1 4313   0.667   4.238   1.851
 1419SOL    HW2 4314   0.549   4.241   1.946
 1420SOL     OW 4315   4.035   2.460   1.745
 1420SOL    HW1 4316   4.108   2.519   1.725
 1420SOL    HW2 4317   4.060   2.418   1.827
 1421SOL     OW 4318   1.995   1.263   3.259
 1421SOL    HW1 4319   1.917   1.210   3.246
 1421SOL    HW2 4320   2.067   1.209   3.225
 1422SOL     OW 4321   2.804   4.240   0.511
 1422SOL    HW1 4322   2.797   4.325   0.467
 1422SOL    HW2 4323   2.847   4.184   0.447
 1423SOL     OW 4324   3.868   1.439   2.849
 1423SOL    HW1 4325   3.832   1.400   2.928
 1423SOL    HW2 4326   3.836   1.384   2.778
 1424SOL     OW 4327   3.341   3.656   0.932
 1424SOL    HW1 4328   3.430   3.622   0.928
 1424SOL    HW2 4329   3.325   3.694   0.846
 1425SOL     OW 4330   4.665   1.916   4.372
 1425SOL    HW1 4331   4.748   1.937   4.329
 1425SOL    HW2 4332   4.690   1.858   4.445
 1426SOL     OW 4333   1.908   1.744   4.776
 1426SOL    HW1 4334   1.828   1.782   4.740
 1426SOL    HW2 4335   1.977   1.805   4.752
 1427SOL     OW 4336   2.217   3.460   3.216
 1427SOL    HW1 4337   2.236   3.522   3.146
 1427SOL    HW2 4338   2.237   3.374   3.178
 1428SOL     OW 4339   0.724   0.629   4.005
 1428SOL    HW1 4340   0.709   0.535   4.005
 1428SOL    HW2 4341   0.674   0.662   4.080
 1429SOL     OW 4342   3.245   0.668   2.813
 1429SOL    HW1 4343   3.223   0.761   2.817
 1429SOL    HW2 4344   3.196   0.628   2.885
 1430SOL     OW 4345   3.591   2.367   0.861
 1430SOL    HW1 4346   3.547   2.341   0.780
 1430SOL    HW2 4347   3.531   2.339   0.930
 1431SOL     OW 4348   3.296   4.035   4.461
 1431SOL    HW1 4349   3.328   4.117   4.423
 1431SOL    HW2 4350   3.375   3.991   4.493
 1432SOL     OW 4351   0.740   2.877   4.186
 1432SOL    HW1 4352   0.674   2.812   4.213
 1432SOL    HW2 4353   0.701   2.961   4.210
 1433SOL     OW 4354   4.679   0.973   1.067
 1433SOL    HW1 4355   4.762   1.019   1.082
 1433SOL    HW2 4356   4.682   0.900   1.129
 1434SOL     OW 4357   3.328   2.726   0.458
 1434SOL    HW1 4358   3.243   2.768   0.439
 1434SOL    HW2 4359   3.345   2.749   0.549
 1435SOL     OW 4360   0.806   4.005   0.069
 1435SOL    HW1 4361   0.876   3.944   0.047
 1435SOL    HW2 4362   0.728   3.969   0.027
 1436SOL     OW 4363   1.304   2.786   2.325
 1436SOL    HW1 4364   1.218   2.821   2.347
 1436SOL    HW2 4365   1.365   2.839   2.375
 1437SOL     OW 4366   0.387   3.106   2.662
 1437SOL    HW1 4367   0.378   3.190   2.617
 1437SOL    HW2 4368   0.345   3.043   2.604
 1438SOL     OW 4369   2.660   3.976   0.235
 1438SOL    HW1 4370   2.590   3.980   0.301
 1438SOL    HW2 4371   2.617   3.999   0.153
 1439SOL     OW 4372   0.828   4.094   1.191
 1439SOL    HW1 4373   0.861   4.139   1.114
 1439SOL    HW2 4374   0.884   4.125   1.263
 1440SOL     OW 4375   1.918   0.055   0.603
 1440SOL    HW1 4376   1.905   0.149   0.598
 1440SOL    HW2 4377   1.844   0.017   0.556
 1441SOL     OW 4378   2.818   2.328   0.620
 1441SOL    HW1 4379   2.765   2.384   0.563
 1441SOL    HW2 4380   2.889   2.385   0.650
 1442SOL     OW 4381   2.908   4.609   1.478
 1442SOL    HW1 4382   2.819   4.604   1.514
 1442SOL    HW2 4383   2.921   4.525   1.435
 1443SOL     OW 4384   0.090   3.672   3.349
 1443SOL    HW1 4385   0.100   3.622   3.268
 1443SOL    HW2 4386   0.099   3.764   3.322
 1444SOL     OW 4387   2.693   3.437   4.291
 1444SOL    HW1 4388   2.655   3.501   4.351
 1444SOL    HW2 4389   2.644   3.450   4.209
 1445SOL     OW 4390   1.777   4.151   4.769
 1445SOL    HW1 4391   1.730   4.090   4.711
 1445SOL    HW2 4392   1.825   4.208   4.709
 1446SOL     OW 4393   1.281   4.620   3.354
 1446SOL    HW1 4394   1.293   4.551   3.289
 1446SOL    HW2 4395   1.196   4.601   3.393
 1447SOL     OW 4396   2.788   0.633   1.797
 1447SOL    HW1 4397   2.824   0.718   1.823
 1447SOL    HW2 4398   2.858   0.592   1.747
 1448SOL     OW 4399   4.414   1.412   0.189
 1448SOL    HW1 4400   4.386   1.412   0.281
 1448SOL    HW2 4401   4.503   1.375   0.192
 1449SOL     OW 4402   4.006   0.054   2.600
 1449SOL    HW1 4403   4.023   0.106   2.678
 1449SOL    HW2 4404   4.093   0.029   2.568
 1450SOL     OW 4405   0.684   3.169   4.230
 1450SOL    HW1 4406   0.754   3.185   4.167
 1450SOL    HW2 4407   0.604   3.184   4.180
 1451SOL     OW 4408   0.441   2.847   2.275
 1451SOL    HW1 4409   0.483   2.930   2.253
 1451SOL    HW2 4410   0.376   2.870   2.341
 1452SOL     OW 4411   0.037   3.064   0.250
 1452SOL    HW1 4412   0.031   3.080   0.345
 1452SOL    HW2 4413   4.917   3.030   0.226
 1453SOL     OW 4414   1.822   0.214   3.875
 1453SOL    HW1 4415   1.799   0.126   3.906
 1453SOL    HW2 4416   1.882   0.248   3.941
 1454SOL     OW 4417   4.430   0.344   2.490
 1454SOL    HW1 4418   4.458   0.272   2.547
 1454SOL    HW2 4419   4.362   0.305   2.435
 1455SOL     OW 4420   0.298   3.290   1.830
 1455SOL    HW1 4421   0.313   3.230   1.757
 1455SOL    HW2 4422   0.316   3.239   1.908
 1456SOL     OW 4423   1.076   1.858   2.984
 1456SOL    HW1 4424   1.104   1.950   2.985
 1456SOL    HW2 4425   1.112   1.823   2.903
 1457SOL     OW 4426   2.838   2.676   4.563
 1457SOL    HW1 4427   2.911   2.736   4.550
 1457SOL    HW2 4428   2.879   2.593   4.590
 1458SOL     OW 4429   2.683   1.041   0.567
 1458SOL    HW1 4430   2.659   1.132   0.547
 1458SOL    HW2 4431   2.625   0.988   0.513
 1459SOL     OW 4432   4.332   1.216   2.016
 1459SOL    HW1 4433   4.367   1.187   1.932
 1459SOL    HW2 4434   4.259   1.156   2.033
 1460SOL     OW 4435   0.748   0.949   3.076
 1460SOL    HW1 4436   0.685   0.923   3.009
 1460SOL    HW2 4437   0.758   1.044   3.065
 1461SOL     OW 4438   1.394   4.652   2.456
 1461SOL    HW1 4439   1.464   4.706   2.494
 1461SOL    HW2 4440   1.410   4.657   2.362
 1462SOL     OW 4441   1.482   3.888   3.118
 1462SOL    HW1 4442   1.559   3.831   3.127
 1462SOL    HW2 4443   1.470   3.926   3.205
 1463SOL     OW 4444   3.720   2.281   3.385
 1463SOL    HW1 4445   3.626   2.290   3.400
 1463SOL    HW2 4446   3.748   2.211   3.444
 1464SOL     OW 4447   1.709   3.749   4.420
 1464SOL    HW1 4448   1.717   3.665   4.374
 1464SOL    HW2 4449   1.718   3.814   4.351
 1465SOL     OW 4450   4.204   2.869   0.997
 1465SOL    HW1 4451   4.209   2.825   0.912
 1465SOL    HW2 4452   4.295   2.883   1.022
 1466SOL     OW 4453   2.964   1.022   1.766
 1466SOL    HW1 4454   2.923   1.072   1.696
 1466SOL    HW2 4455   3.027   1.082   1.806
 1467SOL     OW 4456   2.056   1.148   1.047
 1467SOL    HW1 4457   2.109   1.072   1.069
 1467SOL    HW2 4458   2.090   1.218   1.101
 1468SOL     OW 4459   1.373   4.849   0.624
 1468SOL    HW1 4460   1.289   4.829   0.665
 1468SOL    HW2 4461   1.411   4.764   0.604
 1469SOL     OW 4462   2.161   2.296   1.724
 1469SOL    HW1 4463   2.108   2.283   1.803
 1469SOL    HW2 4464   2.120   2.370   1.680
 1470SOL     OW 4465   2.819   0.860   1.935
 1470SOL    HW1 4466   2.779   0.912   2.005
 1470SOL    HW2 4467   2.868   0.923   1.883
 1471SOL     OW 4468   0.037   2.341   3.354
 1471SOL    HW1 4469   4.942   2.397   3.401
 1471SOL    HW2 4470   0.075   2.397   3.287
 1472SOL     OW 4471   2.225   0.168   3.820
 1472SOL    HW1 4472   2.184   0.219   3.890
 1472SOL    HW2 4473   2.291   0.227   3.783
 1473SOL     OW 4474   0.430   2.569   4.133
 1473SOL    HW1 4475   0.428   2.475   4.117
 1473SOL    HW2 4476   0.422   2.608   4.046
 1474SOL     OW 4477   3.056   4.870   0.957
 1474SOL    HW1 4478   3.054   4.964   0.973
 1474SOL    HW2 4479   3.125   4.858   0.891
 1475SOL     OW 4480   0.016   0.389   0.083
 1475SOL    HW1 4481   0.072   0.343   0.021
 1475SOL    HW2 4482   0.073   0.408   0.158
 1476SOL     OW 4483   2.280   0.965   4.649
 1476SOL    HW1 4484   2.191   0.931   4.642
 1476SOL    HW2 4485   2.306   0.945   4.739
 1477SOL     OW 4486   1.911   4.269   2.976
 1477SOL    HW1 4487   1.917   4.354   2.933
 1477SOL    HW2 4488   1.820   4.263   3.005
 1478SOL     OW 4489   2.619   1.742   2.185
 1478SOL    HW1 4490   2.695   1.689   2.159
 1478SOL    HW2 4491   2.645   1.781   2.268
 1479SOL     OW 4492   1.328   1.383   1.940
 1479SOL    HW1 4493   1.355   1.399   2.031
 1479SOL    HW2 4494   1.404   1.405   1.888
 1480SOL     OW 4495   4.828   2.787   4.471
 1480SOL    HW1 4496   4.807   2.864   4.524
 1480SOL    HW2 4497   4.763   2.722   4.496
 1481SOL     OW 4498   4.432   1.745   3.686
 1481SOL    HW1 4499   4.352   1.746   3.633
 1481SOL    HW2 4500   4.474   1.829   3.668
 1482SOL     OW 4501   0.360   3.806   3.838
 1482SOL    HW1 4502   0.383   3.856   3.916
 1482SOL    HW2 4503   0.430   3.827   3.776
 1483SOL     OW 4504   3.771   1.085   0.533
 1483SOL    HW1 4505   3.799   1.053   0.619
 1483SOL    HW2 4506   3.675   1.089   0.539
 1484SOL     OW 4507   0.358   2.803   2.865
 1484SOL    HW1 4508   0.326   2.746   2.796
 1484SOL    HW2 4509   0.278   2.842   2.902
 1485SOL     OW 4510   1.480   4.667   3.793
 1485SOL    HW1 4511   1.523   4.745   3.758
 1485SOL    HW2 4512   1.401   4.701   3.835
 1486SOL     OW 4513   0.923   3.685   0.236
 1486SOL    HW1 4514   0.830   3.663   0.236
 1486SOL    HW2 4515   0.927   3.771   0.279
 1487SOL     OW 4516   3.584   2.216   3.920
 1487SOL    HW1 4517   3.667   2.173   3.940
 1487SOL    HW2 4518   3.555   2.174   3.839
 1488SOL     OW 4519   4.659   0.109   1.764
 1488SOL    HW1 4520   4.746   0.149   1.756
 1488SOL    HW2 4521   4.623   0.115   1.675
 1489SOL     OW 4522   3.239   3.018   1.156
 1489SOL    HW1 4523   3.318   3.033   1.104
 1489SOL    HW2 4524   3.167   3.026   1.094
 1490SOL     OW 4525   3.886   0.659   1.882
 1490SOL    HW1 4526   3.867   0.622   1.968
 1490SOL    HW2 4527   3.801   0.676   1.843
 1491SOL     OW 4528   1.524   2.888   4.011
 1491SOL    HW1 4529   1.449   2.843   4.049
 1491SOL    HW2 4530   1.529   2.971   4.058
 1492SOL     OW 4531   1.561   1.052   4.029
 1492SOL    HW1 4532   1.521   1.040   4.115
 1492SOL    HW2 4533   1.646   1.009   4.036
 1493SOL     OW 4534   1.160   4.454   0.044
 1493SOL    HW1 4535   1.158   4.358   0.046
 1493SOL    HW2 4536   1.140   4.480   0.133
 1494SOL     OW 4537   4.094   3.945   2.101
 1494SOL    HW1 4538   4.170   3.988   2.141
 1494SOL    HW2 4539   4.060   3.888   2.170
 1495SOL     OW 4540   1.526   2.941   2.148
 1495SOL    HW1 4541   1.460   2.981   2.205
 1495SOL    HW2 4542   1.551   2.860   2.193
 1496SOL     OW 4543   3.139   1.322   1.047
 1496SOL    HW1 4544   3.168   1.406   1.012
 1496SOL    HW2 4545   3.055   1.306   1.003
 1497SOL     OW 4546   0.985   3.078   1.253
 1497SOL    HW1 4547   0.932   3.023   1.196
 1497SOL    HW2 4548   1.038   3.131   1.193
 1498SOL     OW 4549   4.517   3.521   2.063
 1498SOL    HW1 4550   4.602   3.563   2.059
 1498SOL    HW2 4551   4.518   3.471   2.144
 1499SOL     OW 4552   4.283   3.902   1.156
 1499SOL    HW1 4553   4.255   3.957   1.229
 1499SOL    HW2 4554   4.304   3.964   1.085
 1500SOL     OW 4555   2.399   1.353   4.915
 1500SOL    HW1 4556   2.450   1.367   4.835
 1500SOL    HW2 4557   2.320   1.307   4.885
 1501SOL     OW 4558   0.924   0.417   2.699
 1501SOL    HW1 4559   0.967   0.342   2.739
 1501SOL    HW2 4560   0.902   0.387   2.611
 1502SOL     OW 4561   3.289   2.846   2.969
 1502SOL    HW1 4562   3.384   2.849   2.981
 1502SOL    HW2 4563   3.268   2.753   2.965
 1503SOL     OW 4564   2.985   2.454   4.610
 1503SOL    HW1 4565   3.070   2.426   4.645
 1503SOL    HW2 4566   2.925   2.450   4.685
 1504SOL     OW 4567   3.312   0.137   1.530
 1504SOL    HW1 4568   3.404   0.141   1.557
 1504SOL    HW2 4569   3.301   0.047   1.499
 1505SOL     OW 4570   3.837   0.959   0.151
 1505SOL    HW1 4571   3.884   1.037   0.178
 1505SOL    HW2 4572   3.869   0.890   0.210
 1506SOL     OW 4573   0.328   3.262   2.371
 1506SOL    HW1 4574   0.370   3.315   2.303
 1506SOL    HW2 4575   0.333   3.316   2.450
 1507SOL     OW 4576   4.852   1.725   1.098
 1507SOL    HW1 4577   4.797   1.776   1.157
 1507SOL    HW2 4578   4.942   1.748   1.122
 1508SOL     OW 4579   4.480   4.677   0.459
 1508SOL    HW1 4580   4.400   4.726   0.442
 1508SOL    HW2 4581   4.471   4.598   0.405
 1509SOL     OW 4582   0.723   1.627   2.935
 1509SOL    HW1 4583   0.652   1.626   2.999
 1509SOL    HW2 4584   0.796   1.584   2.979
 1510SOL     OW 4585   3.909   4.184   0.607
 1510SOL    HW1 4586   3.954   4.123   0.548
 1510SOL    HW2 4587   3.971   4.198   0.679
 1511SOL     OW 4588   3.622   1.979   2.719
 1511SOL    HW1 4589   3.573   2.032   2.782
 1511SOL    HW2 4590   3.634   1.895   2.763
 1512SOL     OW 4591   0.053   4.092   0.746
 1512SOL    HW1 4592   0.105   4.160   0.702
 1512SOL    HW2 4593   0.013   4.138   0.820
 1513SOL     OW 4594   3.967   2.877   3.174
 1513SOL    HW1 4595   3.919   2.941   3.122
 1513SOL    HW2 4596   3.899   2.829   3.222
 1514SOL     OW 4597   3.842   0.467   1.339
 1514SOL    HW1 4598   3.821   0.394   1.280
 1514SOL    HW2 4599   3.758   0.512   1.351
 1515SOL     OW 4600   4.805   2.806   2.751
 1515SOL    HW1 4601   4.801   2.740   2.681
 1515SOL    HW2 4602   4.738   2.779   2.813
 1516SOL     OW 4603   3.267   4.512   0.146
 1516SOL    HW1 4604   3.278   4.558   0.230
 1516SOL    HW2 4605   3.292   4.422   0.165
 1517SOL     OW 4606   3.404   1.671   1.133
 1517SOL    HW1 4607   3.362   1.752   1.163
 1517SOL    HW2 4608   3.428   1.625   1.213
 1518SOL     OW 4609   3.461   3.215   2.922
 1518SOL    HW1 4610   3.380   3.163   2.923
 1518SOL    HW2 4611   3.512   3.181   2.995
 1519SOL     OW 4612   4.876   4.469   0.780
 1519SOL    HW1 4613   4.839   4.501   0.863
 1519SOL    HW2 4614   4.902   4.548   0.734
 1520SOL     OW 4615   4.694   4.683   2.244
 1520SOL    HW1 4616   4.781   4.718   2.228
 1520SOL    HW2 4617   4.646   4.756   2.284
 1521SOL     OW 4618   1.287   1.922   0.038
 1521SOL    HW1 4619   1.290   1.884   4.917
 1521SOL    HW2 4620   1.378   1.938   0.061
 1522SOL     OW 4621   1.682   4.817   3.989
 1522SOL    HW1 4622   1.762   4.787   3.947
 1522SOL    HW2 4623   1.635   4.865   3.920
 1523SOL     OW 4624   0.630   3.042   3.080
 1523SOL    HW1 4625   0.589   3.122   3.049
 1523SOL    HW2 4626   0.639   2.987   3.002
 1524SOL     OW 4627   2.380   1.367   1.701
 1524SOL    HW1 4628   2.425   1.451   1.692
 1524SOL    HW2 4629   2.328   1.360   1.621
 1525SOL     OW 4630   3.486   1.975   4.592
 1525SOL    HW1 4631   3.435   1.900   4.623
 1525SOL    HW2 4632   3.453   2.049   4.643
 1526SOL     OW 4633   0.976   1.804   0.044
 1526SOL    HW1 4634   1.034   1.750   0.097
 1526SOL    HW2 4635   0.976   1.762   4.924
 1527SOL     OW 4636   1.860   4.524   4.896
 1527SOL    HW1 4637   1.820   4.520   4.810
 1527SOL    HW2 4638   1.791   4.498   4.956
 1528SOL     OW 4639   3.057   0.332   4.440
 1528SOL    HW1 4640   3.150   0.336   4.419
 1528SOL    HW2 4641   3.012   0.363   4.361
 1529SOL     OW 4642   3.396   0.430   2.789
 1529SOL    HW1 4643   3.364   0.520   2.789
 1529SOL    HW2 4644   3.487   0.437   2.760
 1530SOL     OW 4645   0.493   3.461   3.978
 1530SOL    HW1 4646   0.453   3.545   3.954
 1530SOL    HW2 4647   0.520   3.423   3.894
 1531SOL     OW 4648   4.355   1.440   3.588
 1531SOL    HW1 4649   4.382   1.517   3.540
 1531SOL    HW2 4650   4.280   1.469   3.640
 1532SOL     OW 4651   3.495   1.535   2.928
 1532SOL    HW1 4652   3.404   1.522   2.901
 1532SOL    HW2 4653   3.533   1.447   2.931
 1533SOL     OW 4654   1.174   3.900   0.546
 1533SOL    HW1 4655   1.102   3.912   0.608
 1533SOL    HW2 4656   1.133   3.902   0.460
 1534SOL     OW 4657   3.830   4.875   3.662
 1534SOL    HW1 4658   3.882   4.955   3.674
 1534SOL    HW2 4659   3.741   4.900   3.688
 1535SOL     OW 4660   2.625   2.074   3.656
 1535SOL    HW1 4661   2.694   2.027   3.703
 1535SOL    HW2 4662   2.621   2.159   3.700
 1536SOL     OW 4663   1.649   4.965   2.173
 1536SOL    HW1 4664   1.581   0.036   2.117
 1536SOL    HW2 4665   1.700   4.910   2.113
 1537SOL     OW 4666   3.350   1.312   1.566
 1537SOL    HW1 4667   3.331   1.355   1.482
 1537SOL    HW2 4668   3.430   1.355   1.597
 1538SOL     OW 4669   2.584   0.073   0.306
 1538SOL    HW1 4670   2.543   0.160   0.304
 1538SOL    HW2 4671   2.666   0.084   0.259
 1539SOL     OW 4672   3.637   2.292   1.470
 1539SOL    HW1 4673   3.674   2.380   1.485
 1539SOL    HW2 4674   3.676   2.238   1.538
 1540SOL     OW 4675   4.378   1.113   3.625
 1540SOL    HW1 4676   4.406   1.202   3.605
 1540SOL    HW2 4677   4.303   1.098   3.568
 1541SOL     OW 4678   4.073   2.582   0.270
 1541SOL    HW1 4679   3.981   2.583   0.296
 1541SOL    HW2 4680   4.089   2.490   0.246
 1542SOL     OW 4681   4.840   1.456   0.460
 1542SOL    HW1 4682   4.921   1.423   0.421
 1542SOL    HW2 4683   4.796   1.379   0.494
 1543SOL     OW 4684   3.126   4.597   0.811
 1543SOL    HW1 4685   3.157   4.512   0.780
 1543SOL    HW2 4686   3.205   4.647   0.828
 1544SOL     OW 4687   1.473   2.677   3.011
 1544SOL    HW1 4688   1.407   2.744   3.025
 1544SOL    HW2 4689   1.430   2.595   3.033
 1545SOL     OW 4690   2.669   4.245   4.116
 1545SOL    HW1 4691   2.746   4.254   4.059
 1545SOL    HW2 4692   2.705   4.222   4.202
 1546SOL     OW 4693   4.028   3.713   2.222
 1546SOL    HW1 4694   4.049   3.654   2.150
 1546SOL    HW2 4695   4.080   3.680   2.296
 1547SOL     OW 4696   1.406   2.637   3.579
 1547SOL    HW1 4697   1.315   2.606   3.581
 1547SOL    HW2 4698   1.458   2.560   3.602
 1548SOL     OW 4699   2.776   2.415   1.309
 1548SOL    HW1 4700   2.751   2.493   1.360
 1548SOL    HW2 4701   2.796   2.349   1.375
 1549SOL     OW 4702   4.563   1.572   1.720
 1549SOL    HW1 4703   4.643   1.590   1.770
 1549SOL    HW2 4704   4.589   1.581   1.628
 1550SOL     OW 4705   1.177   2.066   0.630
 1550SOL    HW1 4706   1.176   2.143   0.687
 1550SOL    HW2 4707   1.134   2.095   0.549
 1551SOL     OW 4708   1.248   0.364   0.441
 1551SOL    HW1 4709   1.198   0.296   0.395
 1551SOL    HW2 4710   1.284   0.319   0.518
 1552SOL     OW 4711   4.734   4.226   0.702
 1552SOL    HW1 4712   4.753   4.133   0.717
 1552SOL    HW2 4713   4.818   4.270   0.713
 1553SOL     OW 4714   2.239   4.620   0.187
 1553SOL    HW1 4715   2.292   4.680   0.134
 1553SOL    HW2 4716   2.207   4.555   0.125
 1554SOL     OW 4717   2.248   4.105   1.455
 1554SOL    HW1 4718   2.292   4.032   1.412
 1554SOL    HW2 4719   2.303   4.123   1.532
 1555SOL     OW 4720   4.351   0.941   1.615
 1555SOL    HW1 4721   4.293   0.936   1.539
 1555SOL    HW2 4722   4.439   0.934   1.578
 1556SOL     OW 4723   4.782   2.934   4.880
 1556SOL    HW1 4724   4.702   2.952   4.830
 1556SOL    HW2 4725   4.807   2.846   4.853
 1557SOL     OW 4726   1.363   3.334   3.515
 1557SOL    HW1 4727   1.424   3.378   3.574
 1557SOL    HW2 4728   1.405   3.250   3.494
 1558SOL     OW 4729   0.843   3.198   3.746
 1558SOL    HW1 4730   0.926   3.235   3.716
 1558SOL    HW2 4731   0.847   3.204   3.842
 1559SOL     OW 4732   2.096   4.942   3.498
 1559SOL    HW1 4733   2.162   4.887   3.457
 1559SOL    HW2 4734   2.094   0.055   3.445
 1560SOL     OW 4735   1.278   3.745   3.326
 1560SOL    HW1 4736   1.303   3.818   3.382
 1560SOL    HW2 4737   1.217   3.694   3.379
 1561SOL     OW 4738   4.657   2.101   0.179
 1561SOL    HW1 4739   4.602   2.151   0.119
 1561SOL    HW2 4740   4.638   2.010   0.158
 1562SOL     OW 4741   3.335   1.189   0.883
 1562SOL    HW1 4742   3.298   1.214   0.967
 1562SOL    HW2 4743   3.280   1.232   0.817
 1563SOL     OW 4744   0.376   3.268   1.035
 1563SOL    HW1 4745   0.446   3.266   0.970
 1563SOL    HW2 4746   0.314   3.333   1.001
 1564SOL     OW 4747   4.820   3.226   4.772
 1564SOL    HW1 4748   4.904   3.212   4.729
 1564SOL    HW2 4749   4.803   3.145   4.819
 1565SOL     OW 4750   4.909   4.047   3.026
 1565SOL    HW1 4751   4.896   4.102   2.949
 1565SOL    HW2 4752   4.824   4.004   3.040
 1566SOL     OW 4753   2.246   0.346   4.702
 1566SOL    HW1 4754   2.330   0.380   4.735
 1566SOL    HW2 4755   2.233   0.264   4.749
 1567SOL     OW 4756   0.645   1.404   4.426
 1567SOL    HW1 4757   0.677   1.370   4.343
 1567SOL    HW2 4758   0.656   1.331   4.487
 1568SOL     OW 4759   4.948   0.827   4.391
 1568SOL    HW1 4760   4.952   0.732   4.383
 1568SOL    HW2 4761   0.011   0.860   4.307
 1569SOL     OW 4762   4.320   2.603   1.293
 1569SOL    HW1 4763   4.384   2.563   1.234
 1569SOL    HW2 4764   4.246   2.625   1.237
 1570SOL     OW 4765   4.748   3.697   2.039
 1570SOL    HW1 4766   4.836   3.660   2.030
 1570SOL    HW2 4767   4.757   3.767   2.103
 1571SOL     OW 4768   2.546   4.018   1.887
 1571SOL    HW1 4769   2.556   3.927   1.914
 1571SOL    HW2 4770   2.635   4.053   1.889
 1572SOL     OW 4771   4.225   3.668   0.247
 1572SOL    HW1 4772   4.158   3.617   0.202
 1572SOL    HW2 4773   4.176   3.731   0.300
 1573SOL     OW 4774   2.541   3.804   1.553
 1573SOL    HW1 4775   2.539   3.709   1.566
 1573SOL    HW2 4776   2.468   3.836   1.605
 1574SOL     OW 4777   3.815   2.024   4.070
 1574SOL    HW1 4778   3.886   1.988   4.122
 1574SOL    HW2 4779   3.831   2.119   4.069
 1575SOL     OW 4780   0.354   0.125   1.559
 1575SOL    HW1 4781   0.320   0.052   1.508
 1575SOL    HW2 4782   0.447   0.105   1.569
 1576SOL     OW 4783   0.415   3.641   2.553
 1576SOL    HW1 4784   0.508   3.662   2.555
 1576SOL    HW2 4785   0.386   3.670   2.466
 1577SOL     OW 4786   4.002   3.235   4.367
 1577SOL    HW1 4787   3.946   3.258   4.441
 1577SOL    HW2 4788   3.965   3.153   4.333
 1578SOL     OW 4789   3.430   0.167   3.170
 1578SOL    HW1 4790   3.430   0.081   3.212
 1578SOL    HW2 4791   3.500   0.215   3.213
 1579SOL     OW 4792   0.351   1.105   0.502
 1579SOL    HW1 4793   0.338   1.150   0.585
 1579SOL    HW2 4794   0.268   1.113   0.456
 1580SOL     OW 4795   0.670   4.459   0.029
 1580SOL    HW1 4796   0.664   4.388   0.093
 1580SOL    HW2 4797   0.743   4.436   4.939
 1581SOL     OW 4798   3.731   3.597   0.142
 1581SOL    HW1 4799   3.668   3.654   0.097
 1581SOL    HW2 4800   3.765   3.540   0.073
 1582SOL     OW 4801   1.338   1.909   2.326
 1582SOL    HW1 4802   1.381   1.910   2.411
 1582SOL    HW2 4803   1.262   1.966   2.337
 1583SOL     OW 4804   4.487   2.862   4.103
 1583SOL    HW1 4805   4.402   2.906   4.102
 1583SOL    HW2 4806   4.550   2.933   4.097
 1584SOL     OW 4807   0.962   2.048   3.184
 1584SOL    HW1 4808   0.879   2.054   3.135
 1584SOL    HW2 4809   0.938   2.072   3.273
 1585SOL     OW 4810   4.952   0.177   3.778
 1585SOL    HW1 4811   0.052   0.200   3.714
 1585SOL    HW2 4812   4.869   0.196   3.735
 1586SOL     OW 4813   0.123   1.906   4.433
 1586SOL    HW1 4814   0.160   1.828   4.472
 1586SOL    HW2 4815   0.056   1.935   4.494
 1587SOL     OW 4816   4.379   1.613   3.367
 1587SOL    HW1 4817   4.470   1.641   3.358
 1587SOL    HW2 4818   4.373   1.533   3.314
 1588SOL     OW 4819   3.392   3.367   1.824
 1588SOL    HW1 4820   3.405   3.404   1.911
 1588SOL    HW2 4821   3.297   3.354   1.817
 1589SOL     OW 4822   3.772   4.590   0.273
 1589SOL    HW1 4823   3.759   4.622   0.184
 1589SOL    HW2 4824   3.867   4.582   0.282
 1590SOL     OW 4825   4.516   2.061   4.567
 1590SOL    HW1 4826   4.546   2.148   4.593
 1590SOL    HW2 4827   4.573   2.037   4.494
 1591SOL     OW 4828   4.173   1.405   1.917
 1591SOL    HW1 4829   4.228   1.412   1.839
 1591SOL    HW2 4830   4.226   1.354   1.978
 1592SOL     OW 4831   1.571   2.463   4.788
 1592SOL    HW1 4832   1.555   2.553   4.815
 1592SOL    HW2 4833   1.548   2.411   4.865
 1593SOL     OW 4834   3.473   2.594   0.274
 1593SOL    HW1 4835   3.419   2.642   0.337
 1593SOL    HW2 4836   3.563   2.614   0.300
 1594SOL     OW 4837   1.944   4.088   0.010
 1594SOL    HW1 4838   1.948   3.993   4.961
 1594SOL    HW2 4839   1.894   4.122   4.902
 1595SOL     OW 4840   2.194   2.923   4.114
 1595SOL    HW1 4841   2.200   2.837   4.074
 1595SOL    HW2 4842   2.210   2.985   4.043
 1596SOL     OW 4843   3.503   3.929   3.624
 1596SOL    HW1 4844   3.432   3.892   3.572
 1596SOL    HW2 4845   3.488   4.024   3.622
 1597SOL     OW 4846   0.182   2.568   3.268
 1597SOL    HW1 4847   0.101   2.620   3.264
 1597SOL    HW2 4848   0.248   2.624   3.228
 1598SOL     OW 4849   4.541   4.637   3.168
 1598SOL    HW1 4850   4.608   4.690   3.212
 1598SOL    HW2 4851   4.544   4.552   3.212
 1599SOL     OW 4852   1.493   3.241   1.251
 1599SOL    HW1 4853   1.514   3.332   1.272
 1599SOL    HW2 4854   1.507   3.234   1.157
 1600SOL     OW 4855   1.031   1.437   2.546
 1600SOL    HW1 4856   0.973   1.469   2.477
 1600SOL    HW2 4857   0.976   1.431   2.624
 1601SOL     OW 4858   3.340   1.623   4.134
 1601SOL    HW1 4859   3.321   1.664   4.218
 1601SOL    HW2 4860   3.419   1.570   4.151
 1602SOL     OW 4861   3.123   0.393   0.087
 1602SOL    HW1 4862   3.139   0.458   0.018
 1602SOL    HW2 4863   3.050   0.341   0.054
 1603SOL     OW 4864   1.881   3.374   1.949
 1603SOL    HW1 4865   1.839   3.294   1.918
 1603SOL    HW2 4866   1.810   3.423   1.990
 1604SOL     OW 4867   0.752   2.079   1.863
 1604SOL    HW1 4868   0.665   2.064   1.825
 1604SOL    HW2 4869   0.748   2.169   1.896
 1605SOL     OW 4870   3.507   0.255   0.544
 1605SOL    HW1 4871   3.540   0.289   0.627
 1605SOL    HW2 4872   3.434   0.312   0.522
 1606SOL     OW 4873   2.461   1.093   1.759
 1606SOL    HW1 4874   2.410   1.171   1.738
 1606SOL    HW2 4875   2.548   1.126   1.780
 1607SOL     OW 4876   0.771   4.606   4.382
 1607SOL    HW1 4877   0.845   4.593   4.441
 1607SOL    HW2 4878   0.783   4.539   4.314
 1608SOL     OW 4879   0.529   1.758   0.844
 1608SOL    HW1 4880   0.506   1.739   0.753
 1608SOL    HW2 4881   0.622   1.783   0.840
 1609SOL     OW 4882   4.825   3.743   0.130
 1609SOL    HW1 4883   4.861   3.671   0.079
 1609SOL    HW2 4884   4.903   3.787   0.166
 1610SOL     OW 4885   1.978   0.338   1.827
 1610SOL    HW1 4886   1.997   0.248   1.799
 1610SOL    HW2 4887   1.980   0.334   1.923
 1611SOL     OW 4888   3.545   3.826   4.097
 1611SOL    HW1 4889   3.504   3.876   4.026
 1611SOL    HW2 4890   3.639   3.840   4.085
 1612SOL     OW 4891   4.036   3.369   1.346
 1612SOL    HW1 4892   4.087   3.321   1.281
 1612SOL    HW2 4893   3.983   3.430   1.295
 1613SOL     OW 4894   2.705   1.584   3.219
 1613SOL    HW1 4895   2.755   1.502   3.219
 1613SOL    HW2 4896   2.726   1.624   3.304
 1614SOL     OW 4897   4.820   4.719   1.823
 1614SOL    HW1 4898   4.799   4.628   1.841
 1614SOL    HW2 4899   4.835   4.758   1.909
 1615SOL     OW 4900   3.676   0.373   0.060
 1615SOL    HW1 4901   3.589   0.414   0.068
 1615SOL    HW2 4902   3.691   0.332   0.145
 1616SOL     OW 4903   3.487   2.665   3.680
 1616SOL    HW1 4904   3.509   2.723   3.606
 1616SOL    HW2 4905   3.463   2.582   3.638
 1617SOL     OW 4906   4.736   1.598   1.511
 1617SOL    HW1 4907   4.818   1.642   1.532
 1617SOL    HW2 4908   4.704   1.644   1.433
 1618SOL     OW 4909   2.375   3.248   2.005
 1618SOL    HW1 4910   2.313   3.316   2.029
 1618SOL    HW2 4911   2.451   3.295   1.972
 1619SOL     OW 4912   1.537   1.725   1.271
 1619SOL    HW1 4913   1.604   1.708   1.204
 1619SOL    HW2 4914   1.581   1.705   1.354
 1620SOL     OW 4915   0.742   0.063   0.631
 1620SOL    HW1 4916   0.818   0.012   0.659
 1620SOL    HW2 4917   0.771   0.109   0.552
 1621SOL     OW 4918   4.753   2.041   1.464
 1621SOL    HW1 4919   4.792   2.020   1.549
 1621SOL    HW2 4920   4.708   2.124   1.478
 1622SOL     OW 4921   1.914   0.031   0.006
 1622SOL    HW1 4922   2.008   0.022   4.961
 1622SOL    HW2 4923   1.877   4.926   4.921
 1623SOL     OW 4924   2.573   1.570   1.672
 1623SOL    HW1 4925   2.561   1.665   1.665
 1623SOL    HW2 4926   2.608   1.557   1.760
 1624SOL     OW 4927   2.945   1.538   1.547
 1624SOL    HW1 4928   3.016   1.529   1.611
 1624SOL    HW2 4929   2.962   1.622   1.504
 1625SOL     OW 4930   1.986   4.002   1.666
 1625SOL    HW1 4931   1.975   4.079   1.610
 1625SOL    HW2 4932   2.080   3.992   1.675
 1626SOL     OW 4933   3.172   4.847   0.458
 1626SOL    HW1 4934   3.139   4.924   0.505
 1626SOL    HW2 4935   3.117   4.775   0.487
 1627SOL     OW 4936   2.241   3.914   3.067
 1627SOL    HW1 4937   2.167   3.881   3.120
 1627SOL    HW2 4938   2.200   3.973   3.004
 1628SOL     OW 4939   4.802   0.703   2.586
 1628SOL    HW1 4940   4.826   0.791   2.558
 1628SOL    HW2 4941   4.734   0.675   2.524
 1629SOL     OW 4942   1.353   0.939   3.471
 1629SOL    HW1 4943   1.294   1.014   3.469
 1629SOL    HW2 4944   1.372   0.926   3.564
 1630SOL     OW 4945   2.354   2.644   1.696
 1630SOL    HW1 4946   2.381   2.575   1.634
 1630SOL    HW2 4947   2.303   2.598   1.763
 1631SOL     OW 4948   0.083   0.449   2.113
 1631SOL    HW1 4949   0.030   0.523   2.084
 1631SOL    HW2 4950   0.049   0.428   2.200
 1632SOL     OW 4951   1.041   2.797   2.777
 1632SOL    HW1 4952   1.043   2.787   2.872
 1632SOL    HW2 4953   1.017   2.711   2.744
 1633SOL     OW 4954   2.594   3.358   1.263
 1633SOL    HW1 4955   2.577   3.267   1.290
 1633SOL    HW2 4956   2.689   3.368   1.273
 1634SOL     OW 4957   2.723   3.465   2.210
 1634SOL    HW1 4958   2.700   3.555   2.233
 1634SOL    HW2 4959   2.779   3.473   2.133
 1635SOL     OW 4960   2.146   2.985   0.405
 1635SOL    HW1 4961   2.099   2.960   0.326
 1635SOL    HW2 4962   2.077   3.003   0.469
 1636SOL     OW 4963   0.476   2.718   2.513
 1636SOL    HW1 4964   0.502   2.763   2.433
 1636SOL    HW2 4965   0.467   2.626   2.488
 1637SOL     OW 4966   1.080   1.855   1.228
 1637SOL    HW1 4967   1.158   1.900   1.261
 1637SOL    HW2 4968   1.097   1.843   1.134
 1638SOL     OW 4969   3.072   4.566   1.912
 1638SOL    HW1 4970   2.994   4.617   1.933
 1638SOL    HW2 4971   3.129   4.628   1.865
 1639SOL     OW 4972   3.927   3.576   4.031
 1639SOL    HW1 4973   3.958   3.523   3.957
 1639SOL    HW2 4974   4.001   3.577   4.092
 1640SOL     OW 4975   1.499   1.134   1.765
 1640SOL    HW1 4976   1.540   1.064   1.714
 1640SOL    HW2 4977   1.546   1.133   1.848
 1641SOL     OW 4978   3.404   0.905   0.973
 1641SOL    HW1 4979   3.371   0.986   0.935
 1641SOL    HW2 4980   3.461   0.933   1.044
 1642SOL     OW 4981   4.896   2.938   4.025
 1642SOL    HW1 4982   4.965   2.899   4.079
 1642SOL    HW2 4983   4.942   3.001   3.969
 1643SOL     OW 4984   1.259   3.943   2.076
 1643SOL    HW1 4985   1.174   3.900   2.066
 1643SOL    HW2 4986   1.276   3.941   2.170
 1644SOL     OW 4987   4.053   4.332   4.067
 1644SOL    HW1 4988   4.059   4.257   4.126
 1644SOL    HW2 4989   4.040   4.407   4.125
 1645SOL     OW 4990   2.639   2.438   2.474
 1645SOL    HW1 4991   2.717   2.474   2.517
 1645SOL    HW2 4992   2.631   2.488   2.392
 1646SOL     OW 4993   1.518   2.913   1.308
 1646SOL    HW1 4994   1.470   2.960   1.377
 1646SOL    HW2 4995   1.527   2.977   1.237
 1647SOL     OW 4996   1.343   2.875   2.739
 1647SOL    HW1 4997   1.263   2.864   2.689
 1647SOL    HW2 4998   1.316   2.871   2.831
 1648SOL     OW 4999   2.330   2.347   0.594
 1648SOL    HW1 5000   2.284   2.331   0.677
 1648SOL    HW2 5001   2.325   2.263   0.548
 1649SOL     OW 5002   4.470   2.200   1.836
 1649SOL    HW1 5003   4.396   2.253   1.865
 1649SOL    HW2 5004   4.541   2.224   1.896
 1650SOL     OW 5005   4.086   4.512   1.802
 1650SOL    HW1 5006   4.181   4.523   1.798
 1650SOL    HW2 5007   4.073   4.442   1.865
 1651SOL     OW 5008   1.205   4.532   1.458
 1651SOL    HW1 5009   1.225   4.620   1.490
 1651SOL    HW2 5010   1.173   4.545   1.369
 1652SOL     OW 5011   1.251   0.535   4.348
 1652SOL    HW1 5012   1.207   0.598   4.290
 1652SOL    HW2 5013   1.304   0.590   4.406
 1653SOL     OW 5014   2.033   1.634   3.773
 1653SOL    HW1 5015   1.992   1.552   3.746
 1653SOL    HW2 5016   2.095   1.610   3.842
 1654SOL     OW 5017   3.870   0.715   2.263
 1654SOL    HW1 5018   3.926   0.638   2.273
 1654SOL    HW2 5019   3.791   0.683   2.220
 1655SOL     OW 5020   4.579   4.537   3.975
 1655SOL    HW1 5021   4.633   4.587   4.036
 1655SOL    HW2 5022   4.500   4.590   3.964
 1656SOL     OW 5023   0.652   2.692   1.616
 1656SOL    HW1 5024   0.679   2.782   1.600
 1656SOL    HW2 5025   0.617   2.694   1.706
 1657SOL     OW 5026   1.845   2.848   3.207
 1657SOL    HW1 5027   1.920   2.863   3.149
 1657SOL    HW2 5028   1.864   2.901   3.284
 1658SOL     OW 5029   2.989   0.145   4.229
 1658SOL    HW1 5030   2.927   0.216   4.217
 1658SOL    HW2 5031   2.990   0.131   4.324
 1659SOL     OW 5032   0.128   0.180   0.728
 1659SOL    HW1 5033   0.129   0.170   0.824
 1659SOL    HW2 5034   0.215   0.214   0.707
 1660SOL     OW 5035   0.635   0.067   1.544
 1660SOL    HW1 5036   0.659   0.159   1.532
 1660SOL    HW2 5037   0.718   0.020   1.533
 1661SOL     OW 5038   2.089   4.262   0.712
 1661SOL    HW1 5039   2.170   4.221   0.744
 1661SOL    HW2 5040   2.106   4.279   0.619
 1662SOL     OW 5041   2.169   3.593   2.974
 1662SOL    HW1 5042   2.082   3.579   3.011
 1662SOL    HW2 5043   2.187   3.513   2.924
 1663SOL     OW 5044   1.951   1.561   2.071
 1663SOL    HW1 5045   1.858   1.585   2.070
 1663SOL    HW2 5046   1.997   1.645   2.075
 1664SOL     OW 5047   3.028   1.149   3.680
 1664SOL    HW1 5048   3.008   1.139   3.773
 1664SOL    HW2 5049   2.982   1.230   3.655
 1665SOL     OW 5050   4.040   0.040   4.961
 1665SOL    HW1 5051   4.111   0.038   4.897
 1665SOL    HW2 5052   3.982   4.935   4.935
 1666SOL     OW 5053   0.462   0.501   4.436
 1666SOL    HW1 5054   0.493   0.411   4.445
 1666SOL    HW2 5055   0.504   0.548   4.508
 1667SOL     OW 5056   1.754   1.077   4.328
 1667SOL    HW1 5057   1.662   1.055   4.344
 1667SOL    HW2 5058   1.751   1.140   4.256
 1668SOL     OW 5059   2.484   0.128   2.913
 1668SOL    HW1 5060   2.571   0.100   2.943
 1668SOL    HW2 5061   2.423   0.073   2.962
 1669SOL     OW 5062   4.872   4.542   3.427
 1669SOL    HW1 5063   4.857   4.497   3.510
 1669SOL    HW2 5064   4.966   4.532   3.411
 1670SOL     OW 5065   4.627   0.775   0.134
 1670SOL    HW1 5066   4.692   0.717   0.095
 1670SOL    HW2 5067   4.629   0.754   0.227
 1671SOL     OW 5068   3.144   0.482   0.971
 1671SOL    HW1 5069   3.139   0.434   1.053
 1671SOL    HW2 5070   3.224   0.533   0.977
 1672SOL     OW 5071   3.101   4.077   0.733
 1672SOL    HW1 5072   3.111   4.051   0.824
 1672SOL    HW2 5073   3.071   4.168   0.736
 1673SOL     OW 5074   4.312   1.443   1.687
 1673SOL    HW1 5075   4.404   1.469   1.699
 1673SOL    HW2 5076   4.283   1.493   1.611
 1674SOL     OW 5077   2.577   2.483   0.563
 1674SOL    HW1 5078   2.497   2.440   0.594
 1674SOL    HW2 5079   2.565   2.575   0.583
 1675SOL     OW 5080   3.211   4.432   4.765
 1675SOL    HW1 5081   3.248   4.484   4.836
 1675SOL    HW2 5082   3.285   4.416   4.705
 1676SOL     OW 5083   1.692   3.756   0.346
 1676SOL    HW1 5084   1.703   3.842   0.305
 1676SOL    HW2 5085   1.729   3.766   0.433
 1677SOL     OW 5086   4.037   2.711   1.489
 1677SOL    HW1 5087   3.965   2.650   1.472
 1677SOL    HW2 5088   4.047   2.760   1.407
 1678SOL     OW 5089   1.513   4.014   1.084
 1678SOL    HW1 5090   1.607   3.998   1.084
 1678SOL    HW2 5091   1.496   4.052   0.997
 1679SOL     OW 5092   3.108   3.748   0.296
 1679SOL    HW1 5093   3.115   3.670   0.350
 1679SOL    HW2 5094   3.080   3.817   0.356
 1680SOL     OW 5095   4.075   3.796   0.476
 1680SOL    HW1 5096   4.077   3.730   0.545
 1680SOL    HW2 5097   3.992   3.781   0.431
 1681SOL     OW 5098   0.497   0.693   4.646
 1681SOL    HW1 5099   0.480   0.765   4.707
 1681SOL    HW2 5100   0.461   0.616   4.691
 1682SOL     OW 5101   4.138   3.679   1.085
 1682SOL    HW1 5102   4.215   3.623   1.077
 1682SOL    HW2 5103   4.173   3.765   1.110
 1683SOL     OW 5104   2.904   2.414   3.263
 1683SOL    HW1 5105   2.849   2.431   3.340
 1683SOL    HW2 5106   2.876   2.479   3.199
 1684SOL     OW 5107   1.097   0.492   1.875
 1684SOL    HW1 5108   1.178   0.535   1.847
 1684SOL    HW2 5109   1.033   0.515   1.808
 1685SOL     OW 5110   1.023   2.003   4.158
 1685SOL    HW1 5111   0.986   1.970   4.240
 1685SOL    HW2 5112   1.118   1.997   4.170
 1686SOL     OW 5113   3.333   3.663   2.909
 1686SOL    HW1 5114   3.423   3.634   2.926
 1686SOL    HW2 5115   3.279   3.585   2.924
 1687SOL     OW 5116   3.971   3.004   0.704
 1687SOL    HW1 5117   4.018   2.923   0.682
 1687SOL    HW2 5118   4.039   3.071   0.708
 1688SOL     OW 5119   1.626   1.729   3.998
 1688SOL    HW1 5120   1.537   1.719   4.032
 1688SOL    HW2 5121   1.629   1.818   3.964
 1689SOL     OW 5122   3.491   3.181   1.672
 1689SOL    HW1 5123   3.424   3.113   1.671
 1689SOL    HW2 5124   3.452   3.254   1.720
 1690SOL     OW 5125   0.402   4.816   0.316
 1690SOL    HW1 5126   0.404   4.887   0.381
 1690SOL    HW2 5127   0.314   4.821   0.279
 1691SOL     OW 5128   3.537   1.563   3.189
 1691SOL    HW1 5129   3.517   1.581   3.098
 1691SOL    HW2 5130   3.629   1.534   3.189
 1692SOL     OW 5131   0.125   3.682   2.365
 1692SOL    HW1 5132   0.081   3.602   2.339
 1692SOL    HW2 5133   0.217   3.667   2.345
 1693SOL     OW 5134   1.754   1.168   3.141
 1693SOL    HW1 5135   1.780   1.249   3.097
 1693SOL    HW2 5136   1.659   1.163   3.127
 1694SOL     OW 5137   1.548   4.046   0.273
 1694SOL    HW1 5138   1.560   4.083   0.186
 1694SOL    HW2 5139   1.607   4.097   0.329
 1695SOL     OW 5140   3.156   1.912   0.248
 1695SOL    HW1 5141   3.245   1.909   0.282
 1695SOL    HW2 5142   3.101   1.925   0.325
 1696SOL     OW 5143   4.268   4.661   0.994
 1696SOL    HW1 5144   4.312   4.578   1.015
 1696SOL    HW2 5145   4.325   4.702   0.928
 1697SOL     OW 5146   4.198   0.494   1.582
 1697SOL    HW1 5147   4.218   0.401   1.572
 1697SOL    HW2 5148   4.102   0.498   1.586
 1698SOL     OW 5149   1.264   2.747   4.072
 1698SOL    HW1 5150   1.204   2.709   4.007
 1698SOL    HW2 5151   1.208   2.801   4.127
 1699SOL     OW 5152   1.881   1.985   3.108
 1699SOL    HW1 5153   1.797   2.008   3.069
 1699SOL    HW2 5154   1.859   1.957   3.197
 1700SOL     OW 5155   3.771   2.182   1.144
 1700SOL    HW1 5156   3.689   2.142   1.117
 1700SOL    HW2 5157   3.829   2.108   1.162
 1701SOL     OW 5158   4.066   0.226   1.004
 1701SOL    HW1 5159   4.028   0.189   1.084
 1701SOL    HW2 5160   3.997   0.218   0.938
 1702SOL     OW 5161   2.457   0.800   3.754
 1702SOL    HW1 5162   2.520   0.835   3.818
 1702SOL    HW2 5163   2.376   0.847   3.772
 1703SOL     OW 5164   4.785   0.945   1.941
 1703SOL    HW1 5165   4.809   0.998   1.865
 1703SOL    HW2 5166   4.698   0.912   1.921
 1704SOL     OW 5167   3.772   0.297   2.217
 1704SOL    HW1 5168   3.682   0.314   2.191
 1704SOL    HW2 5169   3.773   0.308   2.312
 1705SOL     OW 5170   3.209   1.557   0.024
 1705SOL    HW1 5171   3.195   1.649   0.001
 1705SOL    HW2 5172   3.122   1.517   0.018
 1706SOL     OW 5173   4.236   4.346   2.561
 1706SOL    HW1 5174   4.302   4.336   2.492
 1706SOL    HW2 5175   4.154   4.362   2.515
 1707SOL     OW 5176   1.465   3.117   3.412
 1707SOL    HW1 5177   1.412   3.087   3.338
 1707SOL    HW2 5178   1.547   3.067   3.405
 1708SOL     OW 5179   4.633   3.571   3.119
 1708SOL    HW1 5180   4.595   3.585   3.205
 1708SOL    HW2 5181   4.598   3.486   3.091
 1709SOL     OW 5182   4.615   3.213   1.314
 1709SOL    HW1 5183   4.618   3.254   1.401
 1709SOL    HW2 5184   4.596   3.285   1.254
 1710SOL     OW 5185   1.578   3.036   0.310
 1710SOL    HW1 5186   1.534   3.041   0.394
 1710SOL    HW2 5187   1.571   3.124   0.273
 1711SOL     OW 5188   0.012   0.949   1.027
 1711SOL    HW1 5189   0.086   0.891   1.047
 1711SOL    HW2 5190   0.041   1.035   1.059
 1712SOL     OW 5191   4.358   3.748   1.463
 1712SOL    HW1 5192   4.382   3.840   1.454
 1712SOL    HW2 5193   4.399   3.705   1.387
 1713SOL     OW 5194   1.652   2.306   1.695
 1713SOL    HW1 5195   1.563   2.319   1.661
 1713SOL    HW2 5196   1.659   2.371   1.765
 1714SOL     OW 5197   1.781   2.112   4.961
 1714SOL    HW1 5198   1.737   2.156   0.068
 1714SOL    HW2 5199   1.827   2.039   0.035
 1715SOL     OW 5200   4.565   3.383   2.311
 1715SOL    HW1 5201   4.646   3.414   2.351
 1715SOL    HW2 5202   4.573   3.287   2.312
 1716SOL     OW 5203   1.440   1.860   0.435
 1716SOL    HW1 5204   1.401   1.807   0.504
 1716SOL    HW2 5205   1.432   1.805   0.356
 1717SOL     OW 5206   2.223   3.299   2.848
 1717SOL    HW1 5207   2.228   3.237   2.921
 1717SOL    HW2 5208   2.156   3.263   2.790
 1718SOL     OW 5209   4.088   2.648   0.552
 1718SOL    HW1 5210   4.092   2.689   0.465
 1718SOL    HW2 5211   4.129   2.562   0.540
 1719SOL     OW 5212   0.268   0.830   1.136
 1719SOL    HW1 5213   0.345   0.875   1.101
 1719SOL    HW2 5214   0.297   0.795   1.220
 1720SOL     OW 5215   2.190   0.550   4.547
 1720SOL    HW1 5216   2.267   0.606   4.542
 1720SOL    HW2 5217   2.208   0.491   4.620
 1721SOL     OW 5218   3.398   2.321   1.046
 1721SOL    HW1 5219   3.322   2.349   1.097
 1721SOL    HW2 5220   3.442   2.257   1.101
 1722SOL     OW 5221   3.310   2.566   4.669
 1722SOL    HW1 5222   3.353   2.621   4.735
 1722SOL    HW2 5223   3.244   2.517   4.719
 1723SOL     OW 5224   1.963   1.826   1.812
 1723SOL    HW1 5225   1.906   1.898   1.841
 1723SOL    HW2 5226   1.994   1.786   1.893
 1724SOL     OW 5227   0.221   3.253   4.149
 1724SOL    HW1 5228   0.171   3.224   4.225
 1724SOL    HW2 5229   0.168   3.225   4.074
 1725SOL     OW 5230   3.789   2.302   3.689
 1725SOL    HW1 5231   3.874   2.347   3.694
 1725SOL    HW2 5232   3.737   2.342   3.759
 1726SOL     OW 5233   2.908   0.794   3.202
 1726SOL    HW1 5234   2.860   0.729   3.252
 1726SOL    HW2 5235   2.990   0.750   3.179
 1727SOL     OW 5236   4.563   4.825   4.670
 1727SOL    HW1 5237   4.509   4.853   4.597
 1727SOL    HW2 5238   4.620   4.901   4.688
 1728SOL     OW 5239   4.334   3.903   0.139
 1728SOL    HW1 5240   4.429   3.896   0.131
 1728SOL    HW2 5241   4.305   3.816   0.166
 1729SOL     OW 5242   4.291   3.388   2.965
 1729SOL    HW1 5243   4.213   3.404   3.018
 1729SOL    HW2 5244   4.356   3.356   3.028
 1730SOL     OW 5245   0.817   0.255   1.113
 1730SOL    HW1 5246   0.876   0.299   1.173
 1730SOL    HW2 5247   0.731   0.293   1.130
 1731SOL     OW 5248   2.302   2.325   3.994
 1731SOL    HW1 5249   2.321   2.250   4.050
 1731SOL    HW2 5250   2.367   2.391   4.020
 1732SOL     OW 5251   2.918   3.425   3.087
 1732SOL    HW1 5252   2.834   3.426   3.042
 1732SOL    HW2 5253   2.903   3.369   3.163
 1733SOL     OW 5254   1.346   3.831   0.809
 1733SOL    HW1 5255   1.355   3.920   0.775
 1733SOL    HW2 5256   1.389   3.834   0.895
 1734SOL     OW 5257   2.989   0.977   2.744
 1734SOL    HW1 5258   2.921   1.043   2.755
 1734SOL    HW2 5259   2.968   0.910   2.810
 1735SOL     OW 5260   4.767   2.134   2.529
 1735SOL    HW1 5261   4.713   2.080   2.471
 1735SOL    HW2 5262   4.729   2.121   2.616
 1736SOL     OW 5263   1.691   4.845   2.419
 1736SOL    HW1 5264   1.733   4.763   2.394
 1736SOL    HW2 5265   1.687   4.896   2.338
 1737SOL     OW 5266   2.298   1.943   0.014
 1737SOL    HW1 5267   2.207   1.921   0.037
 1737SOL    HW2 5268   2.346   1.932   0.096
 1738SOL     OW 5269   2.871   2.541   2.576
 1738SOL    HW1 5270   2.941   2.489   2.617
 1738SOL    HW2 5271   2.916   2.594   2.510
 1739SOL     OW 5272   4.609   4.585   0.892
 1739SOL    HW1 5273   4.610   4.575   0.797
 1739SOL    HW2 5274   4.611   4.680   0.905
 1740SOL     OW 5275   3.031   3.600   1.975
 1740SOL    HW1 5276   3.095   3.670   1.989
 1740SOL    HW2 5277   2.953   3.644   1.942
 1741SOL     OW 5278   0.116   1.314   1.519
 1741SOL    HW1 5279   0.199   1.268   1.531
 1741SOL    HW2 5280   0.142   1.403   1.492
 1742SOL     OW 5281   4.195   4.620   0.160
 1742SOL    HW1 5282   4.140   4.573   0.098
 1742SOL    HW2 5283   4.206   4.559   0.233
 1743SOL     OW 5284   2.549   4.500   4.319
 1743SOL    HW1 5285   2.636   4.465   4.339
 1743SOL    HW2 5286   2.549   4.588   4.358
 1744SOL     OW 5287   0.564   1.664   2.121
 1744SOL    HW1 5288   0.506   1.637   2.193
 1744SOL    HW2 5289   0.617   1.734   2.159
 1745SOL     OW 5290   1.739   1.382   4.732
 1745SOL    HW1 5291   1.805   1.396   4.800
 1745SOL    HW2 5292   1.663   1.347   4.778
 1746SOL     OW 5293   4.188   2.052   1.744
 1746SOL    HW1 5294   4.129   2.113   1.698
 1746SOL    HW2 5295   4.223   1.996   1.674
 1747SOL     OW 5296   3.575   3.579   2.985
 1747SOL    HW1 5297   3.613   3.495   3.012
 1747SOL    HW2 5298   3.567   3.629   3.067
 1748SOL     OW 5299   0.929   3.928   0.647
 1748SOL    HW1 5300   0.846   3.897   0.613
 1748SOL    HW2 5301   0.916   4.022   0.660
 1749SOL     OW 5302   0.698   3.868   1.024
 1749SOL    HW1 5303   0.685   3.901   0.935
 1749SOL    HW2 5304   0.627   3.909   1.075
 1750SOL     OW 5305   4.746   1.675   0.328
 1750SOL    HW1 5306   4.781   1.593   0.363
 1750SOL    HW2 5307   4.736   1.659   0.234
 1751SOL     OW 5308   2.329   3.792   1.763
 1751SOL    HW1 5309   2.296   3.881   1.774
 1751SOL    HW2 5310   2.254   3.742   1.729
 1752SOL     OW 5311   0.096   3.122   4.377
 1752SOL    HW1 5312   0.005   3.140   4.353
 1752SOL    HW2 5313   0.104   3.027   4.370
 1753SOL     OW 5314   1.159   0.682   2.323
 1753SOL    HW1 5315   1.093   0.661   2.389
 1753SOL    HW2 5316   1.227   0.615   2.334
 1754SOL     OW 5317   3.650   2.615   2.113
 1754SOL    HW1 5318   3.635   2.522   2.130
 1754SOL    HW2 5319   3.681   2.650   2.196
 1755SOL     OW 5320   1.791   4.106   4.121
 1755SOL    HW1 5321   1.803   4.147   4.207
 1755SOL    HW2 5322   1.823   4.172   4.059
 1756SOL     OW 5323   0.059   0.302   2.666
 1756SOL    HW1 5324   4.937   0.273   2.688
 1756SOL    HW2 5325   0.048   0.393   2.638
 1757SOL     OW 5326   0.807   0.265   0.012
 1757SOL    HW1 5327   0.803   0.353   4.940
 1757SOL    HW2 5328   0.780   0.277   0.103
 1758SOL     OW 5329   0.703   3.225   1.347
 1758SOL    HW1 5330   0.763   3.192   1.280
 1758SOL    HW2 5331   0.754   3.227   1.427
 1759SOL     OW 5332   0.285   2.765   4.472
 1759SOL    HW1 5333   0.234   2.793   4.396
 1759SOL    HW2 5334   0.229   2.700   4.516
 1760SOL     OW 5335   4.842   4.211   2.821
 1760SOL    HW1 5336   4.751   4.241   2.819
 1760SOL    HW2 5337   4.884   4.255   2.747
 1761SOL     OW 5338   0.678   0.647   4.888
 1761SOL    HW1 5339   0.728   0.630   4.809
 1761SOL    HW2 5340   0.682   0.741   4.900
 1762SOL     OW 5341   4.026   1.185   0.232
 1762SOL    HW1 5342   4.089   1.160   0.164
 1762SOL    HW2 5343   4.057   1.271   0.261
 1763SOL     OW 5344   4.289   4.624   3.943
 1763SOL    HW1 5345   4.227   4.662   4.006
 1763SOL    HW2 5346   4.286   4.683   3.868
 1764SOL     OW 5347   1.758   1.148   1.140
 1764SOL    HW1 5348   1.849   1.122   1.127
 1764SOL    HW2 5349   1.732   1.105   1.222
 1765SOL     OW 5350   0.158   4.766   2.541
 1765SOL    HW1 5351   0.151   4.673   2.520
 1765SOL    HW2 5352   0.203   4.804   2.465
 1766SOL     OW 5353   2.198   0.563   3.409
 1766SOL    HW1 5354   2.203   0.570   3.505
 1766SOL    HW2 5355   2.281   0.597   3.378
 1767SOL     OW 5356   3.066   1.739   1.424
 1767SOL    HW1 5357   2.999   1.752   1.357
 1767SOL    HW2 5358   3.114   1.821   1.427
 1768SOL     OW 5359   0.057   1.687   0.869
 1768SOL    HW1 5360   4.944   1.700   0.818
 1768SOL    HW2 5361   0.080   1.774   0.901
 1769SOL     OW 5362   2.434   0.437   2.940
 1769SOL    HW1 5363   2.453   0.343   2.942
 1769SOL    HW2 5364   2.350   0.446   2.985
 1770SOL     OW 5365   2.591   2.421   1.812
 1770SOL    HW1 5366   2.631   2.367   1.743
 1770SOL    HW2 5367   2.651   2.495   1.822
 1771SOL     OW 5368   4.393   0.357   4.855
 1771SOL    HW1 5369   4.470   0.365   4.799
 1771SOL    HW2 5370   4.424   0.380   4.943
 1772SOL     OW 5371   2.872   0.404   4.216
 1772SOL    HW1 5372   2.907   0.460   4.146
 1772SOL    HW2 5373   2.777   0.420   4.214
 1773SOL     OW 5374   4.603   4.823   2.517
 1773SOL    HW1 5375   4.542   4.848   2.447
 1773SOL    HW2 5376   4.551   4.831   2.597
 1774SOL     OW 5377   4.854   4.172   1.445
 1774SOL    HW1 5378   4.859   4.081   1.475
 1774SOL    HW2 5379   4.761   4.191   1.441
 1775SOL     OW 5380   3.167   3.186   0.567
 1775SOL    HW1 5381   3.144   3.149   0.482
 1775SOL    HW2 5382   3.228   3.123   0.604
 1776SOL     OW 5383   1.367   0.200   2.836
 1776SOL    HW1 5384   1.410   0.268   2.887
 1776SOL    HW2 5385   1.307   0.246   2.778
 1777SOL     OW 5386   2.682   4.484   0.818
 1777SOL    HW1 5387   2.603   4.537   0.809
 1777SOL    HW2 5388   2.741   4.538   0.871
 1778SOL     OW 5389   1.015   2.099   0.398
 1778SOL    HW1 5390   0.985   2.018   0.358
 1778SOL    HW2 5391   1.053   2.149   0.326
 1779SOL     OW 5392   4.902   1.951   3.716
 1779SOL    HW1 5393   4.850   1.950   3.797
 1779SOL    HW2 5394   4.925   2.043   3.704
 1780SOL     OW 5395   0.137   2.516   4.487
 1780SOL    HW1 5396   0.190   2.437   4.475
 1780SOL    HW2 5397   0.095   2.529   4.402
 1781SOL     OW 5398   2.713   4.307   1.646
 1781SOL    HW1 5399   2.772   4.247   1.691
 1781SOL    HW2 5400   2.767   4.348   1.579
 1782SOL     OW 5401   1.711   1.900   0.476
 1782SOL    HW1 5402   1.731   1.986   0.440
 1782SOL    HW2 5403   1.616   1.895   0.476
 1783SOL     OW 5404   1.260   0.643   0.159
 1783SOL    HW1 5405   1.325   0.593   0.209
 1783SOL    HW2 5406   1.196   0.578   0.132
 1784SOL     OW 5407   4.095   4.595   0.726
 1784SOL    HW1 5408   4.153   4.533   0.681
 1784SOL    HW2 5409   4.154   4.661   0.762
 1785SOL     OW 5410   1.365   2.435   3.096
 1785SOL    HW1 5411   1.423   2.366   3.127
 1785SOL    HW2 5412   1.325   2.399   3.017
 1786SOL     OW 5413   0.451   0.937   0.874
 1786SOL    HW1 5414   0.492   0.937   0.961
 1786SOL    HW2 5415   0.524   0.921   0.814
 1787SOL     OW 5416   2.857   4.229   3.821
 1787SOL    HW1 5417   2.840   4.251   3.729
 1787SOL    HW2 5418   2.944   4.265   3.838
 1788SOL     OW 5419   4.803   1.300   4.222
 1788SOL    HW1 5420   4.713   1.321   4.247
 1788SOL    HW2 5421   4.853   1.379   4.244
 1789SOL     OW 5422   0.802   4.609   0.765
 1789SOL    HW1 5423   0.811   4.666   0.842
 1789SOL    HW2 5424   0.708   4.594   0.756
 1790SOL     OW 5425   3.310   1.918   1.235
 1790SOL    HW1 5426   3.320   1.954   1.324
 1790SOL    HW2 5427   3.370   1.969   1.182
 1791SOL     OW 5428   0.037   1.294   1.020
 1791SOL    HW1 5429   0.049   1.240   1.098
 1791SOL    HW2 5430   0.116   1.348   1.015
 1792SOL     OW 5431   4.776   0.942   0.434
 1792SOL    HW1 5432   4.712   1.001   0.474
 1792SOL    HW2 5433   4.769   0.958   0.340
 1793SOL     OW 5434   3.920   3.023   4.249
 1793SOL    HW1 5435   3.980   2.948   4.247
 1793SOL    HW2 5436   3.838   2.988   4.285
 1794SOL     OW 5437   2.563   0.894   1.566
 1794SOL    HW1 5438   2.511   0.911   1.644
 1794SOL    HW2 5439   2.528   0.953   1.499
 1795SOL     OW 5440   0.029   0.872   2.465
 1795SOL    HW1 5441   0.010   0.783   2.437
 1795SOL    HW2 5442   0.074   0.912   2.391
 1796SOL     OW 5443   0.420   0.523   3.300
 1796SOL    HW1 5444   0.384   0.473   3.226
 1796SOL    HW2 5445   0.515   0.520   3.288
 1797SOL     OW 5446   1.833   2.747   3.938
 1797SOL    HW1 5447   1.825   2.693   4.017
 1797SOL    HW2 5448   1.914   2.716   3.897
 1798SOL     OW 5449   1.965   0.043   4.160
 1798SOL    HW1 5450   1.997   0.038   4.250
 1798SOL    HW2 5451   1.885   4.957   4.160
 1799SOL     OW 5452   3.385   4.935   0.078
 1799SOL    HW1 5453   3.362   0.034   0.144
 1799SOL    HW2 5454   3.466   0.001   0.039
 1800SOL     OW 5455   3.670   0.628   2.086
 1800SOL    HW1 5456   3.618   0.703   2.057
 1800SOL    HW2 5457   3.605   0.560   2.104
 1801SOL     OW 5458   2.277   4.415   2.299
 1801SOL    HW1 5459   2.196   4.365   2.301
 1801SOL    HW2 5460   2.303   4.415   2.207
 1802SOL     OW 5461   4.174   0.529   4.293
 1802SOL    HW1 5462   4.232   0.505   4.365
 1802SOL    HW2 5463   4.086   0.520   4.330
 1803SOL     OW 5464   0.420   2.171   2.510
 1803SOL    HW1 5465   0.456   2.084   2.526
 1803SOL    HW2 5466   0.356   2.159   2.440
 1804SOL     OW 5467   2.542   0.335   0.277
 1804SOL    HW1 5468   2.451   0.360   0.263
 1804SOL    HW2 5469   2.576   0.403   0.336
 1805SOL     OW 5470   2.074   3.413   1.010
 1805SOL    HW1 5471   2.087   3.376   1.097
 1805SOL    HW2 5472   2.025   3.346   0.962
 1806SOL     OW 5473   3.042   4.770   4.303
 1806SOL    HW1 5474   3.092   4.727   4.233
 1806SOL    HW2 5475   2.951   4.750   4.283
 1807SOL     OW 5476   3.114   1.631   3.473
 1807SOL    HW1 5477   3.018   1.632   3.466
 1807SOL    HW2 5478   3.141   1.717   3.441
 1808SOL     OW 5479   1.559   4.874   1.576
 1808SOL    HW1 5480   1.603   4.954   1.605
 1808SOL    HW2 5481   1.622   4.804   1.591
 1809SOL     OW 5482   4.294   4.955   3.892
 1809SOL    HW1 5483   4.303   4.924   3.801
 1809SOL    HW2 5484   4.233   4.893   3.932
 1810SOL     OW 5485   0.128   0.255   3.566
 1810SOL    HW1 5486   0.166   0.341   3.547
 1810SOL    HW2 5487   0.201   0.195   3.560
 1811SOL     OW 5488   4.082   2.044   1.404
 1811SOL    HW1 5489   4.048   2.119   1.452
 1811SOL    HW2 5490   4.175   2.063   1.391
 1812SOL     OW 5491   2.124   4.484   0.891
 1812SOL    HW1 5492   2.092   4.424   0.824
 1812SOL    HW2 5493   2.108   4.571   0.855
 1813SOL     OW 5494   2.935   4.355   2.029
 1813SOL    HW1 5495   2.932   4.286   1.963
 1813SOL    HW2 5496   3.007   4.412   2.002
 1814SOL     OW 5497   4.890   0.666   2.311
 1814SOL    HW1 5498   4.859   0.755   2.297
 1814SOL    HW2 5499   4.899   0.629   2.223
 1815SOL     OW 5500   0.940   2.865   0.100
 1815SOL    HW1 5501   0.926   2.771   0.092
 1815SOL    HW2 5502   0.870   2.905   0.047
 1816SOL     OW 5503   1.688   2.136   1.291
 1816SOL    HW1 5504   1.636   2.128   1.211
 1816SOL    HW2 5505   1.731   2.221   1.283
 1817SOL     OW 5506   4.460   3.706   1.209
 1817SOL    HW1 5507   4.390   3.767   1.187
 1817SOL    HW2 5508   4.538   3.761   1.216
 1818SOL     OW 5509   0.128   2.210   1.974
 1818SOL    HW1 5510   0.102   2.161   1.895
 1818SOL    HW2 5511   0.213   2.173   1.997
 1819SOL     OW 5512   1.872   0.452   1.071
 1819SOL    HW1 5513   1.875   0.362   1.105
 1819SOL    HW2 5514   1.947   0.457   1.011
 1820SOL     OW 5515   3.418   0.209   1.831
 1820SOL    HW1 5516   3.447   0.234   1.919
 1820SOL    HW2 5517   3.384   0.120   1.841
 1821SOL     OW 5518   2.725   2.409   4.187
 1821SOL    HW1 5519   2.811   2.425   4.227
 1821SOL    HW2 5520   2.688   2.336   4.237
 1822SOL     OW 5521   4.468   2.584   0.219
 1822SOL    HW1 5522   4.391   2.636   0.242
 1822SOL    HW2 5523   4.539   2.621   0.273
 1823SOL     OW 5524   2.295   4.086   1.049
 1823SOL    HW1 5525   2.276   4.111   0.959
 1823SOL    HW2 5526   2.259   3.997   1.057
 1824SOL     OW 5527   0.719   0.274   3.852
 1824SOL    HW1 5528   0.811   0.259   3.831
 1824SOL    HW2 5529   0.719   0.298   3.944
 1825SOL     OW 5530   0.981   0.054   3.629
 1825SOL    HW1 5531   0.970   4.966   3.551
 1825SOL    HW2 5532   0.965   4.961   3.703
 1826SOL     OW 5533   1.413   2.938   1.861
 1826SOL    HW1 5534   1.491   2.994   1.865
 1826SOL    HW2 5535   1.405   2.903   1.949
 1827SOL     OW 5536   4.322   0.346   2.049
 1827SOL    HW1 5537   4.388   0.345   1.980
 1827SOL    HW2 5538   4.239   0.339   2.003
 1828SOL     OW 5539   0.308   2.384   4.936
 1828SOL    HW1 5540   0.307   2.450   4.867
 1828SOL    HW2 5541   0.224   2.395   0.014
 1829SOL     OW 5542   2.376   2.835   2.091
 1829SOL    HW1 5543   2.425   2.859   2.013
 1829SOL    HW2 5544   2.409   2.748   2.114
 1830SOL     OW 5545   3.389   4.105   0.554
 1830SOL    HW1 5546   3.440   4.106   0.635
 1830SOL    HW2 5547   3.360   4.196   0.543
 1831SOL     OW 5548   0.381   0.343   3.955
 1831SOL    HW1 5549   0.408   0.317   3.867
 1831SOL    HW2 5550   0.286   0.344   3.952
 1832SOL     OW 5551   0.311   3.501   2.029
 1832SOL    HW1 5552   0.405   3.495   2.045
 1832SOL    HW2 5553   0.298   3.455   1.946
 1833SOL     OW 5554   1.105   2.327   1.309
 1833SOL    HW1 5555   1.184   2.298   1.265
 1833SOL    HW2 5556   1.133   2.344   1.399
 1834SOL     OW 5557   2.825   0.385   2.834
 1834SOL    HW1 5558   2.883   0.324   2.789
 1834SOL    HW2 5559   2.750   0.333   2.860
 1835SOL     OW 5560   4.435   1.618   4.942
 1835SOL    HW1 5561   4.403   1.558   0.043
 1835SOL    HW2 5562   4.419   1.572   4.860
 1836SOL     OW 5563   0.523   1.786   4.852
 1836SOL    HW1 5564   0.543   1.844   4.779
 1836SOL    HW2 5565   0.532   1.698   4.816
 1837SOL     OW 5566   4.040   2.912   2.651
 1837SOL    HW1 5567   4.055   2.819   2.634
 1837SOL    HW2 5568   4.094   2.958   2.587
 1838SOL     OW 5569   1.303   2.232   2.127
 1838SOL    HW1 5570   1.361   2.156   2.119
 1838SOL    HW2 5571   1.232   2.202   2.184
 1839SOL     OW 5572   4.673   1.976   2.326
 1839SOL    HW1 5573   4.760   1.991   2.290
 1839SOL    HW2 5574   4.615   1.977   2.250
 1840SOL     OW 5575   4.411   2.832   4.958
 1840SOL    HW1 5576   4.470   2.877   4.897
 1840SOL    HW2 5577   4.448   2.744   4.966
 1841SOL     OW 5578   3.465   1.764   0.575
 1841SOL    HW1 5579   3.429   1.808   0.498
 1841SOL    HW2 5580   3.417   1.802   0.649
 1842SOL     OW 5581   0.844   4.010   2.028
 1842SOL    HW1 5582   0.764   4.038   2.072
 1842SOL    HW2 5583   0.883   4.092   1.996
 1843SOL     OW 5584   3.688   3.234   2.791
 1843SOL    HW1 5585   3.610   3.238   2.847
 1843SOL    HW2 5586   3.699   3.140   2.774
 1844SOL     OW 5587   0.014   3.609   4.299
 1844SOL    HW1 5588   0.011   3.695   4.258
 1844SOL    HW2 5589   4.952   3.548   4.231
 1845SOL     OW 5590   2.336   1.514   2.617
 1845SOL    HW1 5591   2.247   1.525   2.582
 1845SOL    HW2 5592   2.349   1.420   2.622
 1846SOL     OW 5593   2.277   4.145   4.700
 1846SOL    HW1 5594   2.297   4.185   4.785
 1846SOL    HW2 5595   2.311   4.208   4.636
 1847SOL     OW 5596   3.647   2.982   1.807
 1847SOL    HW1 5597   3.670   3.036   1.883
 1847SOL    HW2 5598   3.602   3.041   1.748
 1848SOL     OW 5599   1.698   3.409   2.540
 1848SOL    HW1 5600   1.710   3.340   2.475
 1848SOL    HW2 5601   1.786   3.428   2.572
 1849SOL     OW 5602   2.933   0.971   3.416
 1849SOL    HW1 5603   2.903   0.941   3.330
 1849SOL    HW2 5604   2.857   0.960   3.473
 1850SOL     OW 5605   3.185   2.859   0.081
 1850SOL    HW1 5606   3.161   2.832   0.169
 1850SOL    HW2 5607   3.134   2.802   0.023
 1851SOL     OW 5608   1.534   2.478   2.164
 1851SOL    HW1 5609   1.450   2.460   2.206
 1851SOL    HW2 5610   1.586   2.522   2.232
 1852SOL     OW 5611   4.452   3.921   1.870
 1852SOL    HW1 5612   4.533   3.914   1.820
 1852SOL    HW2 5613   4.421   3.830   1.877
 1853SOL     OW 5614   1.862   3.300   0.749
 1853SOL    HW1 5615   1.825   3.387   0.765
 1853SOL    HW2 5616   1.792   3.253   0.703
 1854SOL     OW 5617   0.408   2.926   1.948
 1854SOL    HW1 5618   0.385   3.001   2.004
 1854SOL    HW2 5619   0.332   2.914   1.891
 1855SOL     OW 5620   1.618   2.504   1.895
 1855SOL    HW1 5621   1.663   2.586   1.912
 1855SOL    HW2 5622   1.558   2.493   1.969
 1856SOL     OW 5623   0.922   3.552   3.532
 1856SOL    HW1 5624   0.996   3.518   3.483
 1856SOL    HW2 5625   0.906   3.638   3.495
 1857SOL     OW 5626   1.734   3.081   4.239
 1857SOL    HW1 5627   1.663   3.136   4.207
 1857SOL    HW2 5628   1.799   3.081   4.168
 1858SOL     OW 5629   4.538   2.926   1.589
 1858SOL    HW1 5630   4.454   2.903   1.550
 1858SOL    HW2 5631   4.592   2.848   1.577
 1859SOL     OW 5632   0.413   4.229   0.070
 1859SOL    HW1 5633   0.426   4.217   4.942
 1859SOL    HW2 5634   0.407   4.140   0.104
 1860SOL     OW 5635   1.262   4.612   1.999
 1860SOL    HW1 5636   1.184   4.556   1.997
 1860SOL    HW2 5637   1.232   4.694   1.960
 1861SOL     OW 5638   4.090   3.245   4.110
 1861SOL    HW1 5639   4.081   3.256   4.204
 1861SOL    HW2 5640   4.022   3.183   4.086
 1862SOL     OW 5641   1.092   4.562   1.210
 1862SOL    HW1 5642   1.037   4.530   1.139
 1862SOL    HW2 5643   1.053   4.646   1.235
 1863SOL     OW 5644   1.763   1.244   0.777
 1863SOL    HW1 5645   1.783   1.271   0.866
 1863SOL    HW2 5646   1.704   1.169   0.787
 1864SOL     OW 5647   3.558   1.151   3.070
 1864SOL    HW1 5648   3.628   1.210   3.041
 1864SOL    HW2 5649   3.490   1.159   3.003
 1865SOL     OW 5650   3.656   1.840   4.417
 1865SOL    HW1 5651   3.618   1.911   4.469
 1865SOL    HW2 5652   3.721   1.801   4.474
 1866SOL     OW 5653   0.759   2.026   4.894
 1866SOL    HW1 5654   0.753   2.112   4.936
 1866SOL    HW2 5655   0.775   1.966   0.000
 1867SOL     OW 5656   4.568   4.772   2.938
 1867SOL    HW1 5657   4.544   4.731   3.021
 1867SOL    HW2 5658   4.599   4.859   2.962
 1868SOL     OW 5659   4.913   3.378   3.315
 1868SOL    HW1 5660   4.899   3.304   3.374
 1868SOL    HW2 5661   0.042   3.383   3.305
 1869SOL     OW 5662   2.691   2.452   2.103
 1869SOL    HW1 5663   2.711   2.495   2.020
 1869SOL    HW2 5664   2.625   2.508   2.144
 1870SOL     OW 5665   0.132   2.132   4.894
 1870SOL    HW1 5666   0.110   2.168   0.013
 1870SOL    HW2 5667   0.123   2.206   4.834
 1871SOL     OW 5668   2.947   2.362   2.083
 1871SOL    HW1 5669   2.976   2.291   2.140
 1871SOL    HW2 5670   2.860   2.384   2.115
 1872SOL     OW 5671   2.108   0.260   0.244
 1872SOL    HW1 5672   2.130   0.180   0.196
 1872SOL    HW2 5673   2.018   0.246   0.274
 1873SOL     OW 5674   2.331   4.431   1.526
 1873SOL    HW1 5675   2.402   4.432   1.462
 1873SOL    HW2 5676   2.358   4.366   1.591
 1874SOL     OW 5677   0.944   3.010   3.231
 1874SOL    HW1 5678   0.917   3.060   3.308
 1874SOL    HW2 5679   1.024   2.965   3.259
 1875SOL     OW 5680   0.892   1.098   0.171
 1875SOL    HW1 5681   0.925   1.182   0.140
 1875SOL    HW2 5682   0.895   1.041   0.094
 1876SOL     OW 5683   2.447   0.906   0.442
 1876SOL    HW1 5684   2.441   0.817   0.476
 1876SOL    HW2 5685   2.368   0.950   0.474
 1877SOL     OW 5686   4.527   3.646   4.579
 1877SOL    HW1 5687   4.438   3.613   4.574
 1877SOL    HW2 5688   4.577   3.575   4.618
 1878SOL     OW 5689   3.119   1.070   3.127
 1878SOL    HW1 5690   3.072   1.085   3.209
 1878SOL    HW2 5691   3.050   1.060   3.061
 1879SOL     OW 5692   1.008   2.609   1.284
 1879SOL    HW1 5693   1.045   2.521   1.295
 1879SOL    HW2 5694   1.011   2.625   1.190
 1880SOL     OW 5695   3.969   4.787   0.498
 1880SOL    HW1 5696   4.002   4.807   0.411
 1880SOL    HW2 5697   3.997   4.697   0.515
 1881SOL     OW 5698   0.859   2.029   0.955
 1881SOL    HW1 5699   0.872   2.063   1.044
 1881SOL    HW2 5700   0.876   2.104   0.898
 1882SOL     OW 5701   1.673   4.814   4.857
 1882SOL    HW1 5702   1.676   4.792   4.950
 1882SOL    HW2 5703   1.597   4.871   4.848
 1883SOL     OW 5704   1.832   3.838   4.861
 1883SOL    HW1 5705   1.844   3.868   4.771
 1883SOL    HW2 5706   1.826   3.743   4.855
 1884SOL     OW 5707   3.391   3.973   1.469
 1884SOL    HW1 5708   3.393   3.915   1.545
 1884SOL    HW2 5709   3.466   3.945   1.416
 1885SOL     OW 5710   1.556   1.920   4.465
 1885SOL    HW1 5711   1.494   1.991   4.482
 1885SOL    HW2 5712   1.512   1.864   4.401
 1886SOL     OW 5713   4.256   3.881   2.489
 1886SOL    HW1 5714   4.201   3.803   2.492
 1886SOL    HW2 5715   4.245   3.921   2.575
 1887SOL     OW 5716   1.495   2.115   4.728
 1887SOL    HW1 5717   1.503   2.141   4.820
 1887SOL    HW2 5718   1.534   2.028   4.725
 1888SOL     OW 5719   2.895   2.974   2.493
 1888SOL    HW1 5720   2.980   2.998   2.530
 1888SOL    HW2 5721   2.855   3.057   2.469
 1889SOL     OW 5722   2.544   3.427   1.911
 1889SOL    HW1 5723   2.523   3.447   1.820
 1889SOL    HW2 5724   2.640   3.427   1.914
 1890SOL     OW 5725   2.173   0.628   3.983
 1890SOL    HW1 5726   2.260   0.632   4.022
 1890SOL    HW2 5727   2.127   0.704   4.020
 1891SOL     OW 5728   2.611   2.051   2.675
 1891SOL    HW1 5729   2.680   2.093   2.624
 1891SOL    HW2 5730   2.654   1.976   2.716
 1892SOL     OW 5731   4.864   3.364   0.629
 1892SOL    HW1 5732   4.824   3.326   0.550
 1892SOL    HW2 5733   4.876   3.456   0.609
 1893SOL     OW 5734   3.741   1.109   3.993
 1893SOL    HW1 5735   3.793   1.181   3.959
 1893SOL    HW2 5736   3.666   1.103   3.934
 1894SOL     OW 5737   3.527   2.749   1.909
 1894SOL    HW1 5738   3.585   2.811   1.863
 1894SOL    HW2 5739   3.587   2.684   1.946
 1895SOL     OW 5740   1.773   1.857   2.757
 1895SOL    HW1 5741   1.795   1.946   2.728
 1895SOL    HW2 5742   1.722   1.871   2.837
 1896SOL     OW 5743   4.944   4.462   1.409
 1896SOL    HW1 5744   4.945   4.389   1.347
 1896SOL    HW2 5745   4.851   4.479   1.424
 1897SOL     OW 5746   4.553   1.861   0.087
 1897SOL    HW1 5747   4.481   1.826   0.035
 1897SOL    HW2 5748   4.621   1.793   0.082
 1898SOL     OW 5749   2.462   3.967   3.256
 1898SOL    HW1 5750   2.403   3.931   3.190
 1898SOL    HW2 5751   2.532   4.008   3.206
 1899SOL     OW 5752   1.166   3.964   1.028
 1899SOL    HW1 5753   1.108   3.890   1.011
 1899SOL    HW2 5754   1.199   3.949   1.117
 1900SOL     OW 5755   3.097   4.359   0.677
 1900SOL    HW1 5756   3.012   4.395   0.653
 1900SOL    HW2 5757   3.124   4.309   0.600
 1901SOL     OW 5758   0.251   3.119   1.612
 1901SOL    HW1 5759   0.300   3.037   1.611
 1901SOL    HW2 5760   0.197   3.115   1.534
 1902SOL     OW 5761   0.317   1.872   2.867
 1902SOL    HW1 5762   0.238   1.897   2.916
 1902SOL    HW2 5763   0.334   1.782   2.896
 1903SOL     OW 5764   2.780   4.963   0.547
 1903SOL    HW1 5765   2.742   4.878   0.570
 1903SOL    HW2 5766   2.710   0.042   0.499
 1904SOL     OW 5767   4.056   1.151   4.002
 1904SOL    HW1 5768   4.141   1.161   3.960
 1904SOL    HW2 5769   4.070   1.082   4.067
 1905SOL     OW 5770   0.157   1.023   2.672
 1905SOL    HW1 5771   0.182   0.975   2.751
 1905SOL    HW2 5772   0.109   0.959   2.619
 1906SOL     OW 5773   4.712   2.686   0.280
 1906SOL    HW1 5774   4.729   2.780   0.272
 1906SOL    HW2 5775   4.792   2.651   0.320
 1907SOL     OW 5776   2.363   2.306   1.035
 1907SOL    HW1 5777   2.329   2.393   1.014
 1907SOL    HW2 5778   2.328   2.249   0.967
 1908SOL     OW 5779   1.110   2.458   2.888
 1908SOL    HW1 5780   1.072   2.457   2.800
 1908SOL    HW2 5781   1.034   2.473   2.946
 1909SOL     OW 5782   4.390   4.117   3.781
 1909SOL    HW1 5783   4.367   4.127   3.688
 1909SOL    HW2 5784   4.356   4.196   3.823
 1910SOL     OW 5785   2.186   2.436   2.528
 1910SOL    HW1 5786   2.120   2.401   2.589
 1910SOL    HW2 5787   2.183   2.376   2.453
 1911SOL     OW 5788   2.825   0.832   1.589
 1911SOL    HW1 5789   2.850   0.882   1.666
 1911SOL    HW2 5790   2.732   0.851   1.577
 1912SOL     OW 5791   3.573   4.244   0.157
 1912SOL    HW1 5792   3.624   4.266   0.236
 1912SOL    HW2 5793   3.598   4.153   0.138
 1913SOL     OW 5794   4.582   3.212   0.857
 1913SOL    HW1 5795   4.583   3.303   0.829
 1913SOL    HW2 5796   4.490   3.185   0.847
 1914SOL     OW 5797   4.310   0.855   0.770
 1914SOL    HW1 5798   4.228   0.807   0.760
 1914SOL    HW2 5799   4.317   0.871   0.864
 1915SOL     OW 5800   2.811   0.403   3.581
 1915SOL    HW1 5801   2.844   0.489   3.607
 1915SOL    HW2 5802   2.868   0.341   3.625
 1916SOL     OW 5803   1.492   3.781   0.069
 1916SOL    HW1 5804   1.568   3.821   0.111
 1916SOL    HW2 5805   1.524   3.696   0.039
 1917SOL     OW 5806   0.378   0.639   0.844
 1917SOL    HW1 5807   0.406   0.720   0.886
 1917SOL    HW2 5808   0.392   0.654   0.751
 1918SOL     OW 5809   3.804   4.372   2.555
 1918SOL    HW1 5810   3.766   4.441   2.610
 1918SOL    HW2 5811   3.735   4.305   2.551
 1919SOL     OW 5812   3.360   4.638   2.685
 1919SOL    HW1 5813   3.307   4.673   2.756
 1919SOL    HW2 5814   3.406   4.714   2.649
 1920SOL     OW 5815   3.508   2.809   4.157
 1920SOL    HW1 5816   3.497   2.801   4.062
 1920SOL    HW2 5817   3.421   2.828   4.190
 1921SOL     OW 5818   4.742   4.802   0.469
 1921SOL    HW1 5819   4.652   4.773   0.454
 1921SOL    HW2 5820   4.760   4.863   0.398
 1922SOL     OW 5821   1.140   0.907   0.574
 1922SOL    HW1 5822   1.049   0.922   0.549
 1922SOL    HW2 5823   1.156   0.815   0.551
 1923SOL     OW 5824   1.696   0.456   3.572
 1923SOL    HW1 5825   1.759   0.523   3.547
 1923SOL    HW2 5826   1.643   0.497   3.641
 1924SOL     OW 5827   1.636   4.487   0.102
 1924SOL    HW1 5828   1.564   4.498   0.041
 1924SOL    HW2 5829   1.646   4.392   0.112
 1925SOL     OW 5830   0.544   2.963   0.810
 1925SOL    HW1 5831   0.551   2.896   0.878
 1925SOL    HW2 5832   0.566   3.045   0.855
 1926SOL     OW 5833   4.631   4.392   0.074
 1926SOL    HW1 5834   4.553   4.357   0.031
 1926SOL    HW2 5835   4.664   4.459   0.014
 1927SOL     OW 5836   2.286   3.965   0.083
 1927SOL    HW1 5837   2.227   4.036   0.106
 1927SOL    HW2 5838   2.356   4.006   0.034
 1928SOL     OW 5839   0.586   4.736   1.710
 1928SOL    HW1 5840   0.538   4.661   1.675
 1928SOL    HW2 5841   0.627   4.702   1.790
 1929SOL     OW 5842   3.247   2.612   3.330
 1929SOL    HW1 5843   3.189   2.683   3.357
 1929SOL    HW2 5844   3.315   2.655   3.277
 1930SOL     OW 5845   4.189   2.237   1.921
 1930SOL    HW1 5846   4.210   2.178   1.849
 1930SOL    HW2 5847   4.174   2.179   1.996
 1931SOL     OW 5848   3.593   1.424   0.302
 1931SOL    HW1 5849   3.673   1.377   0.329
 1931SOL    HW2 5850   3.523   1.359   0.313
 1932SOL     OW 5851   3.635   4.820   2.824
 1932SOL    HW1 5852   3.666   4.792   2.910
 1932SOL    HW2 5853   3.544   4.848   2.840
 1933SOL     OW 5854   0.454   1.432   3.555
 1933SOL    HW1 5855   0.508   1.354   3.563
 1933SOL    HW2 5856   0.505   1.493   3.502
 1934SOL     OW 5857   2.972   3.222   0.789
 1934SOL    HW1 5858   3.018   3.290   0.839
 1934SOL    HW2 5859   3.039   3.185   0.732
 1935SOL     OW 5860   2.148   2.760   1.526
 1935SOL    HW1 5861   2.108   2.844   1.545
 1935SOL    HW2 5862   2.216   2.750   1.592
 1936SOL     OW 5863   2.699   3.186   0.798
 1936SOL    HW1 5864   2.682   3.267   0.846
 1936SOL    HW2 5865   2.795   3.184   0.788
 1937SOL     OW 5866   0.353   0.022   1.176
 1937SOL    HW1 5867   0.286   0.042   1.241
 1937SOL    HW2 5868   0.408   4.922   1.217
 1938SOL     OW 5869   0.282   1.692   4.532
 1938SOL    HW1 5870   0.334   1.763   4.495
 1938SOL    HW2 5871   0.328   1.612   4.505
 1939SOL     OW 5872   4.386   0.323   0.994
 1939SOL    HW1 5873   4.420   0.350   1.080
 1939SOL    HW2 5874   4.457   0.340   0.933
 1940SOL     OW 5875   3.000   4.446   1.181
 1940SOL    HW1 5876   3.017   4.538   1.164
 1940SOL    HW2 5877   3.078   4.400   1.149
 1941SOL     OW 5878   1.569   4.625   1.859
 1941SOL    HW1 5879   1.477   4.652   1.860
 1941SOL    HW2 5880   1.568   4.536   1.895
 1942SOL     OW 5881   2.150   1.911   4.375
 1942SOL    HW1 5882   2.111   1.997   4.357
 1942SOL    HW2 5883   2.214   1.928   4.444
 1943SOL     OW 5884   1.540   2.371   3.622
 1943SOL    HW1 5885   1.506   2.284   3.640
 1943SOL    HW2 5886   1.589   2.362   3.540
 1944SOL     OW 5887   2.221   2.693   3.055
 1944SOL    HW1 5888   2.284   2.644   3.108
 1944SOL    HW2 5889   2.218   2.780   3.096
 1945SOL     OW 5890   1.259   0.335   1.372
 1945SOL    HW1 5891   1.313   0.413   1.379
 1945SOL    HW2 5892   1.298   0.285   1.301
 1946SOL     OW 5893   3.074   2.066   2.512
 1946SOL    HW1 5894   3.032   2.106   2.436
 1946SOL    HW2 5895   3.052   1.973   2.507
 1947SOL     OW 5896   3.738   1.267   0.049
 1947SOL    HW1 5897   3.730   1.245   4.923
 1947SOL    HW2 5898   3.801   1.340   0.051
 1948SOL     OW 5899   2.049   0.800   0.681
 1948SOL    HW1 5900   1.973   0.857   0.671
 1948SOL    HW2 5901   2.013   0.712   0.688
 1949SOL     OW 5902   1.828   1.840   3.735
 1949SOL    HW1 5903   1.849   1.921   3.781
 1949SOL    HW2 5904   1.911   1.794   3.729
 1950SOL     OW 5905   3.691   0.635   0.700
 1950SOL    HW1 5906   3.774   0.624   0.748
 1950SOL    HW2 5907   3.717   0.630   0.608
 1951SOL     OW 5908   4.229   2.425   0.521
 1951SOL    HW1 5909   4.265   2.354   0.573
 1951SOL    HW2 5910   4.264   2.411   0.433
 1952SOL     OW 5911   1.501   1.986   1.486
 1952SOL    HW1 5912   1.506   1.891   1.473
 1952SOL    HW2 5913   1.563   2.022   1.423
 1953SOL     OW 5914   1.137   1.094   0.790
 1953SOL    HW1 5915   1.219   1.130   0.824
 1953SOL    HW2 5916   1.161   1.049   0.709
 1954SOL     OW 5917   3.664   0.510   3.347
 1954SOL    HW1 5918   3.592   0.537   3.403
 1954SOL    HW2 5919   3.636   0.534   3.258
 1955SOL     OW 5920   4.160   3.908   1.788
 1955SOL    HW1 5921   4.251   3.916   1.816
 1955SOL    HW2 5922   4.110   3.902   1.869
 1956SOL     OW 5923   0.171   2.837   3.110
 1956SOL    HW1 5924   0.090   2.842   3.060
 1956SOL    HW2 5925   0.202   2.927   3.115
 1957SOL     OW 5926   4.464   2.169   4.928
 1957SOL    HW1 5927   4.397   2.101   4.921
 1957SOL    HW2 5928   4.419   2.243   0.003
 1958SOL     OW 5929   0.539   1.146   4.550
 1958SOL    HW1 5930   0.523   1.116   4.460
 1958SOL    HW2 5931   0.547   1.065   4.601
 1959SOL     OW 5932   3.837   2.792   4.595
 1959SOL    HW1 5933   3.920   2.745   4.605
 1959SOL    HW2 5934   3.809   2.772   4.505
 1960SOL     OW 5935   0.603   2.768   0.461
 1960SOL    HW1 5936   0.631   2.856   0.434
 1960SOL    HW2 5937   0.513   2.761   0.428
 1961SOL     OW 5938   3.836   1.498   3.681
 1961SOL    HW1 5939   3.785   1.447   3.743
 1961SOL    HW2 5940   3.773   1.559   3.642
 1962SOL     OW 5941   3.115   3.310   1.776
 1962SOL    HW1 5942   3.056   3.335   1.705
 1962SOL    HW2 5943   3.099   3.216   1.788
 1963SOL     OW 5944   0.388   2.486   2.054
 1963SOL    HW1 5945   0.449   2.545   2.098
 1963SOL    HW2 5946   0.322   2.466   2.121
 1964SOL     OW 5947   3.543   3.987   0.778
 1964SOL    HW1 5948   3.590   4.019   0.855
 1964SOL    HW2 5949   3.456   3.964   0.811
 1965SOL     OW 5950   4.692   2.316   2.260
 1965SOL    HW1 5951   4.645   2.282   2.184
 1965SOL    HW2 5952   4.780   2.280   2.253
 1966SOL     OW 5953   2.346   2.585   2.334
 1966SOL    HW1 5954   2.286   2.654   2.306
 1966SOL    HW2 5955   2.291   2.522   2.381
 1967SOL     OW 5956   4.318   2.507   3.512
 1967SOL    HW1 5957   4.344   2.478   3.425
 1967SOL    HW2 5958   4.314   2.602   3.507
 1968SOL     OW 5959   1.403   0.373   1.009
 1968SOL    HW1 5960   1.392   0.295   1.063
 1968SOL    HW2 5961   1.326   0.426   1.027
 1969SOL     OW 5962   3.883   3.900   0.795
 1969SOL    HW1 5963   3.839   3.960   0.855
 1969SOL    HW2 5964   3.858   3.931   0.707
 1970SOL     OW 5965   1.033   3.858   0.024
 1970SOL    HW1 5966   1.115   3.881   4.948
 1970SOL    HW2 5967   1.054   3.782   0.078
 1971SOL     OW 5968   4.011   0.830   1.336
 1971SOL    HW1 5969   4.048   0.757   1.287
 1971SOL    HW2 5970   3.954   0.789   1.402
 1972SOL     OW 5971   3.344   2.363   0.283
 1972SOL    HW1 5972   3.375   2.301   0.217
 1972SOL    HW2 5973   3.398   2.441   0.270
 1973SOL     OW 5974   1.942   3.136   4.478
 1973SOL    HW1 5975   1.888   3.058   4.495
 1973SOL    HW2 5976   1.981   3.120   4.392
 1974SOL     OW 5977   1.173   1.406   1.132
 1974SOL    HW1 5978   1.207   1.460   1.203
 1974SOL    HW2 5979   1.207   1.318   1.151
 1975SOL     OW 5980   3.425   4.942   0.566
 1975SOL    HW1 5981   3.359   4.899   0.512
 1975SOL    HW2 5982   3.435   0.062   0.526
 1976SOL     OW 5983   4.417   3.549   2.481
 1976SOL    HW1 5984   4.448   3.490   2.412
 1976SOL    HW2 5985   4.494   3.601   2.505
 1977SOL     OW 5986   2.158   1.105   2.498
 1977SOL    HW1 5987   2.201   1.022   2.518
 1977SOL    HW2 5988   2.089   1.082   2.435
 1978SOL     OW 5989   4.830   0.776   1.493
 1978SOL    HW1 5990   4.859   0.764   1.584
 1978SOL    HW2 5991   4.789   0.862   1.492
 1979SOL     OW 5992   1.195   1.820   4.547
 1979SOL    HW1 5993   1.227   1.767   4.474
 1979SOL    HW2 5994   1.232   1.907   4.531
 1980SOL     OW 5995   4.112   1.232   1.596
 1980SOL    HW1 5996   4.044   1.280   1.549
 1980SOL    HW2 5997   4.163   1.300   1.640
 1981SOL     OW 5998   2.111   3.664   2.078
 1981SOL    HW1 5999   2.123   3.759   2.077
 1981SOL    HW2 6000   2.128   3.639   2.169
 1982SOL     OW 6001   4.506   0.975   0.642
 1982SOL    HW1 6002   4.579   0.970   0.704
 1982SOL    HW2 6003   4.434   0.929   0.684
 1983SOL     OW 6004   4.595   4.325   2.771
 1983SOL    HW1 6005   4.588   4.278   2.688
 1983SOL    HW2 6006   4.508   4.316   2.811
 1984SOL     OW 6007   0.290   3.577   1.452
 1984SOL    HW1 6008   0.317   3.621   1.532
 1984SOL    HW2 6009   0.362   3.518   1.431
 1985SOL     OW 6010   2.054   3.820   2.839
 1985SOL    HW1 6011   2.046   3.900   2.892
 1985SOL    HW2 6012   2.103   3.759   2.894
 1986SOL     OW 6013   4.637   2.302   1.619
 1986SOL    HW1 6014   4.583   2.254   1.682
 1986SOL    HW2 6015   4.577   2.364   1.577
 1987SOL     OW 6016   0.613   4.057   0.410
 1987SOL    HW1 6017   0.614   4.065   0.506
 1987SOL    HW2 6018   0.570   3.973   0.394
 1988SOL     OW 6019   4.765   0.235   2.680
 1988SOL    HW1 6020   4.689   0.259   2.732
 1988SOL    HW2 6021   4.755   0.141   2.663
 1989SOL     OW 6022   2.002   3.953   0.836
 1989SOL    HW1 6023   2.078   3.965   0.780
 1989SOL    HW2 6024   1.981   4.042   0.866
 1990SOL     OW 6025   2.198   3.367   2.361
 1990SOL    HW1 6026   2.279   3.374   2.310
 1990SOL    HW2 6027   2.186   3.273   2.375
 1991SOL     OW 6028   2.276   3.051   0.808
 1991SOL    HW1 6029   2.214   3.085   0.744
 1991SOL    HW2 6030   2.252   3.093   0.891
 1992SOL     OW 6031   4.125   1.036   2.098
 1992SOL    HW1 6032   4.030   1.035   2.095
 1992SOL    HW2 6033   4.152   0.953   2.060
 1993SOL     OW 6034   0.174   0.743   3.811
 1993SOL    HW1 6035   0.212   0.684   3.746
 1993SOL    HW2 6036   0.133   0.813   3.760
 1994SOL     OW 6037   1.141   3.774   3.626
 1994SOL    HW1 6038   1.165   3.739   3.712
 1994SOL    HW2 6039   1.162   3.867   3.631
 1995SOL     OW 6040   3.009   1.781   2.578
 1995SOL    HW1 6041   3.023   1.807   2.669
 1995SOL    HW2 6042   2.933   1.723   2.581
 1996SOL     OW 6043   3.381   2.829   1.486
 1996SOL    HW1 6044   3.456   2.872   1.529
 1996SOL    HW2 6045   3.319   2.900   1.469
 1997SOL     OW 6046   3.830   4.868   0.178
 1997SOL    HW1 6047   3.920   4.885   0.205
 1997SOL    HW2 6048   3.834   4.853   0.084
 1998SOL     OW 6049   1.036   0.146   4.856
 1998SOL    HW1 6050   0.961   0.199   4.883
 1998SOL    HW2 6051   1.001   0.084   4.793
 1999SOL     OW 6052   0.855   4.245   4.937
 1999SOL    HW1 6053   0.934   4.231   0.023
 1999SOL    HW2 6054   0.798   4.171   4.959
 2000SOL     OW 6055   2.507   0.123   2.618
 2000SOL    HW1 6056   2.586   0.075   2.592
 2000SOL    HW2 6057   2.490   0.093   2.708
 2001SOL     OW 6058   1.152   4.190   0.062
 2001SOL    HW1 6059   1.163   4.134   0.139
 2001SOL    HW2 6060   1.204   4.146   4.961
 2002SOL     OW 6061   0.288   4.062   2.487
 2002SOL    HW1 6062   0.364   4.004   2.480
 2002SOL    HW2 6063   0.238   4.046   2.408
 2003SOL     OW 6064   2.243   1.139   3.179
 2003SOL    HW1 6065   2.321   1.162   3.229
 2003SOL    HW2 6066   2.263   1.053   3.141
 2004SOL     OW 6067   3.113   1.998   3.480
 2004SOL    HW1 6068   3.021   1.977   3.463
 2004SOL    HW2 6069   3.123   2.089   3.451
 2005SOL     OW 6070   2.350   2.204   4.840
 2005SOL    HW1 6071   2.328   2.112   4.849
 2005SOL    HW2 6072   2.369   2.233   4.929
 2006SOL     OW 6073   3.054   1.818   2.844
 2006SOL    HW1 6074   3.112   1.866   2.903
 2006SOL    HW2 6075   3.039   1.734   2.887
 2007SOL     OW 6076   2.757   0.347   3.293
 2007SOL    HW1 6077   2.674   0.299   3.290
 2007SOL    HW2 6078   2.795   0.325   3.378
 2008SOL     OW 6079   1.747   1.475   1.579
 2008SOL    HW1 6080   1.799   1.411   1.532
 2008SOL    HW2 6081   1.799   1.555   1.577
 2009SOL     OW 6082   4.609   0.126   2.940
 2009SOL    HW1 6083   4.699   0.100   2.922
 2009SOL    HW2 6084   4.610   0.153   3.032
 2010SOL     OW 6085   3.862   1.671   4.785
 2010SOL    HW1 6086   3.824   1.716   4.860
 2010SOL    HW2 6087   3.898   1.590   4.821
 2011SOL     OW 6088   0.417   1.991   0.845
 2011SOL    HW1 6089   0.402   2.019   0.936
 2011SOL    HW2 6090   0.456   1.904   0.854
 2012SOL     OW 6091   3.551   1.493   1.714
 2012SOL    HW1 6092   3.576   1.558   1.780
 2012SOL    HW2 6093   3.633   1.474   1.667
 2013SOL     OW 6094   4.706   4.539   2.463
 2013SOL    HW1 6095   4.697   4.577   2.375
 2013SOL    HW2 6096   4.687   4.611   2.523
 2014SOL     OW 6097   1.702   1.598   3.396
 2014SOL    HW1 6098   1.693   1.621   3.488
 2014SOL    HW2 6099   1.674   1.676   3.348
 2015SOL     OW 6100   0.801   1.513   4.831
 2015SOL    HW1 6101   0.818   1.583   4.769
 2015SOL    HW2 6102   0.706   1.500   4.828
 2016SOL     OW 6103   4.055   1.700   1.591
 2016SOL    HW1 6104   4.141   1.711   1.630
 2016SOL    HW2 6105   4.069   1.707   1.497
 2017SOL     OW 6106   2.645   3.245   3.844
 2017SOL    HW1 6107   2.575   3.285   3.793
 2017SOL    HW2 6108   2.612   3.243   3.933
 2018SOL     OW 6109   2.978   3.635   4.201
 2018SOL    HW1 6110   2.988   3.540   4.210
 2018SOL    HW2 6111   3.067   3.668   4.193
 2019SOL     OW 6112   1.879   2.567   2.553
 2019SOL    HW1 6113   1.882   2.662   2.571
 2019SOL    HW2 6114   1.788   2.543   2.569
 2020SOL     OW 6115   3.232   3.162   2.343
 2020SOL    HW1 6116   3.312   3.188   2.297
 2020SOL    HW2 6117   3.172   3.138   2.273
 2021SOL     OW 6118   0.203   2.205   0.285
 2021SOL    HW1 6119   0.114   2.189   0.319
 2021SOL    HW2 6120   0.213   2.300   0.289
 2022SOL     OW 6121   3.394   3.760   4.666
 2022SOL    HW1 6122   3.367   3.683   4.616
 2022SOL    HW2 6123   3.312   3.803   4.690
 2023SOL     OW 6124   3.971   1.932   4.428
 2023SOL    HW1 6125   3.912   1.961   4.498
 2023SOL    HW2 6126   3.947   1.840   4.414
 2024SOL     OW 6127   1.618   3.321   3.220
 2024SOL    HW1 6128   1.581   3.233   3.230
 2024SOL    HW2 6129   1.648   3.324   3.129
 2025SOL     OW 6130   1.156   1.611   0.320
 2025SOL    HW1 6131   1.159   1.671   0.395
 2025SOL    HW2 6132   1.243   1.617   0.281
 2026SOL     OW 6133   4.453   1.853   0.378
 2026SOL    HW1 6134   4.536   1.848   0.332
 2026SOL    HW2 6135   4.459   1.786   0.446
 2027SOL     OW 6136   2.101   4.093   2.900
 2027SOL    HW1 6137   2.025   4.149   2.921
 2027SOL    HW2 6138   2.140   4.136   2.823
 2028SOL     OW 6139   3.197   0.668   4.151
 2028SOL    HW1 6140   3.273   0.634   4.104
 2028SOL    HW2 6141   3.122   0.630   4.106
 2029SOL     OW 6142   0.417   3.179   3.499
 2029SOL    HW1 6143   0.367   3.216   3.427
 2029SOL    HW2 6144   0.490   3.134   3.457
 2030SOL     OW 6145   4.439   1.590   1.262
 2030SOL    HW1 6146   4.426   1.632   1.177
 2030SOL    HW2 6147   4.477   1.504   1.240
 2031SOL     OW 6148   2.400   1.561   4.468
 2031SOL    HW1 6149   2.439   1.631   4.415
 2031SOL    HW2 6150   2.307   1.563   4.446
 2032SOL     OW 6151   2.499   4.368   0.142
 2032SOL    HW1 6152   2.575   4.395   0.194
 2032SOL    HW2 6153   2.424   4.407   0.187
 2033SOL     OW 6154   3.142   1.242   1.726
 2033SOL    HW1 6155   3.111   1.333   1.718
 2033SOL    HW2 6156   3.225   1.242   1.678
 2034SOL     OW 6157   0.688   2.017   0.523
 2034SOL    HW1 6158   0.650   1.974   0.599
 2034SOL    HW2 6159   0.695   2.109   0.549
 2035SOL     OW 6160   4.296   3.536   4.380
 2035SOL    HW1 6161   4.270   3.583   4.301
 2035SOL    HW2 6162   4.248   3.578   4.450
 2036SOL     OW 6163   2.438   4.257   2.897
 2036SOL    HW1 6164   2.517   4.247   2.842
 2036SOL    HW2 6165   2.378   4.308   2.843
 2037SOL     OW 6166   4.007   2.061   3.175
 2037SOL    HW1 6167   4.011   2.002   3.250
 2037SOL    HW2 6168   4.045   2.011   3.103
 2038SOL     OW 6169   2.025   4.336   2.358
 2038SOL    HW1 6170   2.040   4.254   2.406
 2038SOL    HW2 6171   1.953   4.315   2.298
 2039SOL     OW 6172   1.046   4.494   2.232
 2039SOL    HW1 6173   0.976   4.520   2.172
 2039SOL    HW2 6174   1.054   4.399   2.221
 2040SOL     OW 6175   3.956   1.862   3.791
 2040SOL    HW1 6176   3.948   1.956   3.804
 2040SOL    HW2 6177   3.885   1.840   3.731
 2041SOL     OW 6178   1.294   1.531   1.362
 2041SOL    HW1 6179   1.301   1.565   1.451
 2041SOL    HW2 6180   1.370   1.568   1.316
 2042SOL     OW 6181   2.959   1.421   0.086
 2042SOL    HW1 6182   2.981   1.344   0.138
 2042SOL    HW2 6183   2.884   1.459   0.130
 2043SOL     OW 6184   3.615   3.610   4.385
 2043SOL    HW1 6185   3.636   3.560   4.464
 2043SOL    HW2 6186   3.532   3.573   4.354
 2044SOL     OW 6187   0.869   2.515   0.627
 2044SOL    HW1 6188   0.956   2.489   0.596
 2044SOL    HW2 6189   0.886   2.587   0.688
 2045SOL     OW 6190   4.881   1.637   1.849
 2045SOL    HW1 6191   4.909   1.723   1.819
 2045SOL    HW2 6192   4.963   1.589   1.865
 2046SOL     OW 6193   3.343   0.073   2.462
 2046SOL    HW1 6194   3.389   4.955   2.458
 2046SOL    HW2 6195   3.260   0.057   2.417
 2047SOL     OW 6196   3.465   3.338   2.208
 2047SOL    HW1 6197   3.494   3.369   2.122
 2047SOL    HW2 6198   3.544   3.301   2.248
 2048SOL     OW 6199   3.374   4.738   4.396
 2048SOL    HW1 6200   3.286   4.775   4.396
 2048SOL    HW2 6201   3.431   4.811   4.373
 2049SOL     OW 6202   2.592   2.660   2.310
 2049SOL    HW1 6203   2.501   2.633   2.321
 2049SOL    HW2 6204   2.594   2.752   2.337
 2050SOL     OW 6205   3.798   2.682   3.719
 2050SOL    HW1 6206   3.887   2.715   3.721
 2050SOL    HW2 6207   3.758   2.726   3.643
 2051SOL     OW 6208   0.648   0.309   0.713
 2051SOL    HW1 6209   0.657   0.214   0.714
 2051SOL    HW2 6210   0.710   0.339   0.647
 2052SOL     OW 6211   4.229   3.170   0.705
 2052SOL    HW1 6212   4.242   3.075   0.702
 2052SOL    HW2 6213   4.304   3.206   0.659
 2053SOL     OW 6214   0.932   0.642   2.091
 2053SOL    HW1 6215   1.013   0.653   2.140
 2053SOL    HW2 6216   0.956   0.587   2.017
 2054SOL     OW 6217   3.248   4.779   3.675
 2054SOL    HW1 6218   3.174   4.718   3.677
 2054SOL    HW2 6219   3.307   4.744   3.608
 2055SOL     OW 6220   0.895   2.184   1.180
 2055SOL    HW1 6221   0.816   2.228   1.211
 2055SOL    HW2 6222   0.967   2.227   1.226
 2056SOL     OW 6223   3.303   2.324   3.181
 2056SOL    HW1 6224   3.365   2.307   3.253
 2056SOL    HW2 6225   3.217   2.321   3.222
 2057SOL     OW 6226   0.576   0.500   0.343
 2057SOL    HW1 6227   0.540   0.580   0.306
 2057SOL    HW2 6228   0.670   0.507   0.330
 2058SOL     OW 6229   2.877   0.489   1.091
 2058SOL    HW1 6230   2.973   0.483   1.087
 2058SOL    HW2 6231   2.856   0.565   1.037
 2059SOL     OW 6232   3.389   4.451   0.742
 2059SOL    HW1 6233   3.471   4.498   0.726
 2059SOL    HW2 6234   3.355   4.433   0.654
 2060SOL     OW 6235   4.698   0.242   0.018
 2060SOL    HW1 6236   4.642   0.284   0.084
 2060SOL    HW2 6237   4.784   0.281   0.033
 2061SOL     OW 6238   0.549   4.517   0.740
 2061SOL    HW1 6239   0.571   4.467   0.661
 2061SOL    HW2 6240   0.465   4.558   0.719
 2062SOL     OW 6241   1.144   4.925   1.945
 2062SOL    HW1 6242   1.136   0.054   1.947
 2062SOL    HW2 6243   1.237   4.909   1.926
 2063SOL     OW 6244   2.257   0.202   1.205
 2063SOL    HW1 6245   2.238   0.282   1.156
 2063SOL    HW2 6246   2.199   0.136   1.166
 2064SOL     OW 6247   2.614   0.545   1.621
 2064SOL    HW1 6248   2.666   0.532   1.541
 2064SOL    HW2 6249   2.677   0.573   1.687
 2065SOL     OW 6250   1.268   4.202   3.503
 2065SOL    HW1 6251   1.249   4.226   3.593
 2065SOL    HW2 6252   1.363   4.190   3.500
 2066SOL     OW 6253   3.052   3.952   2.184
 2066SOL    HW1 6254   2.977   3.906   2.146
 2066SOL    HW2 6255   3.038   3.946   2.279
 2067SOL     OW 6256   1.806   1.528   1.001
 2067SOL    HW1 6257   1.901   1.535   1.015
 2067SOL    HW2 6258   1.772   1.501   1.086
 2068SOL     OW 6259   2.951   0.509   0.451
 2068SOL    HW1 6260   2.924   0.501   0.360
 2068SOL    HW2 6261   2.875   0.479   0.501
 2069SOL     OW 6262   0.624   2.868   0.170
 2069SOL    HW1 6263   0.577   2.794   0.131
 2069SOL    HW2 6264   0.657   2.918   0.095
 2070SOL     OW 6265   2.765   0.668   0.913
 2070SOL    HW1 6266   2.676   0.671   0.878
 2070SOL    HW2 6267   2.799   0.756   0.898
 2071SOL     OW 6268   1.924   3.379   1.662
 2071SOL    HW1 6269   1.980   3.301   1.662
 2071SOL    HW2 6270   1.868   3.368   1.739
 2072SOL     OW 6271   1.401   4.875   1.827
 2072SOL    HW1 6272   1.363   4.962   1.821
 2072SOL    HW2 6273   1.485   4.882   1.781
 2073SOL     OW 6274   1.218   0.782   2.667
 2073SOL    HW1 6275   1.206   0.875   2.644
 2073SOL    HW2 6276   1.305   0.761   2.634
 2074SOL     OW 6277   3.421   3.712   3.797
 2074SOL    HW1 6278   3.458   3.745   3.715
 2074SOL    HW2 6279   3.451   3.774   3.863
 2075SOL     OW 6280   3.714   4.520   4.484
 2075SOL    HW1 6281   3.707   4.556   4.395
 2075SOL    HW2 6282   3.774   4.446   4.474
 2076SOL     OW 6283   3.500   3.686   3.217
 2076SOL    HW1 6284   3.424   3.642   3.254
 2076SOL    HW2 6285   3.484   3.779   3.232
 2077SOL     OW 6286   1.521   2.890   3.734
 2077SOL    HW1 6287   1.463   2.816   3.718
 2077SOL    HW2 6288   1.538   2.887   3.828
 2078SOL     OW 6289   1.523   1.881   2.534
 2078SOL    HW1 6290   1.603   1.835   2.510
 2078SOL    HW2 6291   1.490   1.833   2.610
 2079SOL     OW 6292   3.700   2.856   1.349
 2079SOL    HW1 6293   3.660   2.940   1.328
 2079SOL    HW2 6294   3.721   2.817   1.263
 2080SOL     OW 6295   1.937   2.617   4.211
 2080SOL    HW1 6296   1.878   2.583   4.278
 2080SOL    HW2 6297   2.022   2.623   4.255
 2081SOL     OW 6298   1.432   2.574   2.779
 2081SOL    HW1 6299   1.347   2.540   2.805
 2081SOL    HW2 6300   1.464   2.621   2.856
 2082SOL     OW 6301   4.187   1.815   0.313
 2082SOL    HW1 6302   4.157   1.841   0.400
 2082SOL    HW2 6303   4.283   1.817   0.319
 2083SOL     OW 6304   3.322   1.841   2.924
 2083SOL    HW1 6305   3.318   1.795   3.007
 2083SOL    HW2 6306   3.361   1.926   2.945
 2084SOL     OW 6307   1.098   2.395   2.468
 2084SOL    HW1 6308   1.139   2.320   2.511
 2084SOL    HW2 6309   1.030   2.357   2.413
 2085SOL     OW 6310   3.335   3.375   0.427
 2085SOL    HW1 6311   3.317   3.369   0.333
 2085SOL    HW2 6312   3.293   3.297   0.464
 2086SOL     OW 6313   3.139   3.792   4.440
 2086SOL    HW1 6314   3.129   3.740   4.520
 2086SOL    HW2 6315   3.145   3.882   4.471
 2087SOL     OW 6316   0.046   3.698   3.794
 2087SOL    HW1 6317   0.059   3.629   3.728
 2087SOL    HW2 6318   0.134   3.714   3.829
 2088SOL     OW 6319   1.217   3.128   1.821
 2088SOL    HW1 6320   1.269   3.207   1.839
 2088SOL    HW2 6321   1.282   3.062   1.798
 2089SOL     OW 6322   0.373   2.733   0.692
 2089SOL    HW1 6323   0.459   2.757   0.657
 2089SOL    HW2 6324   0.392   2.676   0.767
 2090SOL     OW 6325   1.941   2.505   1.751
 2090SOL    HW1 6326   1.892   2.583   1.728
 2090SOL    HW2 6327   1.885   2.432   1.722
 2091SOL     OW 6328   2.592   0.223   0.033
 2091SOL    HW1 6329   2.683   0.251   0.021
 2091SOL    HW2 6330   2.572   0.243   0.124
 2092SOL     OW 6331   2.936   0.022   2.500
 2092SOL    HW1 6332   2.880   0.082   2.450
 2092SOL    HW2 6333   2.945   0.065   2.586
 2093SOL     OW 6334   0.153   4.274   4.443
 2093SOL    HW1 6335   0.143   4.295   4.350
 2093SOL    HW2 6336   0.221   4.334   4.473
 2094SOL     OW 6337   0.899   1.566   2.331
 2094SOL    HW1 6338   0.951   1.585   2.254
 2094SOL    HW2 6339   0.822   1.520   2.298
 2095SOL     OW 6340   0.882   2.454   3.026
 2095SOL    HW1 6341   0.795   2.491   3.040
 2095SOL    HW2 6342   0.911   2.428   3.113
 2096SOL     OW 6343   1.897   4.465   1.130
 2096SOL    HW1 6344   1.971   4.460   1.189
 2096SOL    HW2 6345   1.821   4.473   1.187
 2097SOL     OW 6346   1.912   1.197   2.593
 2097SOL    HW1 6347   1.973   1.244   2.536
 2097SOL    HW2 6348   1.882   1.264   2.655
 2098SOL     OW 6349   2.515   2.734   0.588
 2098SOL    HW1 6350   2.546   2.816   0.627
 2098SOL    HW2 6351   2.476   2.760   0.505
 2099SOL     OW 6352   1.300   0.466   2.363
 2099SOL    HW1 6353   1.307   0.402   2.434
 2099SOL    HW2 6354   1.363   0.534   2.387
 2100SOL     OW 6355   1.422   0.266   3.665
 2100SOL    HW1 6356   1.343   0.316   3.687
 2100SOL    HW2 6357   1.392   0.201   3.601
 2101SOL     OW 6358   0.074   4.515   2.003
 2101SOL    HW1 6359   0.056   4.591   2.059
 2101SOL    HW2 6360   0.002   4.455   2.020
 2102SOL     OW 6361   1.956   4.785   1.419
 2102SOL    HW1 6362   2.011   4.732   1.477
 2102SOL    HW2 6363   1.993   4.772   1.331
 2103SOL     OW 6364   1.288   2.863   2.998
 2103SOL    HW1 6365   1.294   2.950   3.037
 2103SOL    HW2 6366   1.204   2.830   3.027
 2104SOL     OW 6367   0.375   3.917   4.107
 2104SOL    HW1 6368   0.360   3.995   4.161
 2104SOL    HW2 6369   0.297   3.863   4.121
 2105SOL     OW 6370   0.966   2.832   1.448
 2105SOL    HW1 6371   0.967   2.908   1.390
 2105SOL    HW2 6372   0.992   2.759   1.392
 2106SOL     OW 6373   1.431   0.415   0.239
 2106SOL    HW1 6374   1.521   0.382   0.243
 2106SOL    HW2 6375   1.396   0.399   0.326
 2107SOL     OW 6376   2.286   0.865   3.086
 2107SOL    HW1 6377   2.266   0.808   3.012
 2107SOL    HW2 6378   2.354   0.818   3.134
 2108SOL     OW 6379   2.958   4.068   2.526
 2108SOL    HW1 6380   3.043   4.030   2.503
 2108SOL    HW2 6381   2.933   4.023   2.607
 2109SOL     OW 6382   0.930   3.180   1.505
 2109SOL    HW1 6383   0.965   3.138   1.426
 2109SOL    HW2 6384   0.979   3.261   1.514
 2110SOL     OW 6385   3.485   2.829   3.895
 2110SOL    HW1 6386   3.473   2.769   3.821
 2110SOL    HW2 6387   3.437   2.908   3.870
 2111SOL     OW 6388   0.055   4.876   2.025
 2111SOL    HW1 6389   0.077   4.917   1.941
 2111SOL    HW2 6390   4.945   4.926   2.056
 2112SOL     OW 6391   3.914   0.536   4.090
 2112SOL    HW1 6392   3.980   0.584   4.040
 2112SOL    HW2 6393   3.928   0.563   4.181
 2113SOL     OW 6394   1.522   0.503   4.122
 2113SOL    HW1 6395   1.532   0.445   4.198
 2113SOL    HW2 6396   1.560   0.454   4.049
 2114SOL     OW 6397   3.941   0.796   3.060
 2114SOL    HW1 6398   3.879   0.745   3.008
 2114SOL    HW2 6399   4.023   0.746   3.054
 2115SOL     OW 6400   3.305   1.946   4.202
 2115SOL    HW1 6401   3.384   1.924   4.152
 2115SOL    HW2 6402   3.283   1.866   4.249
 2116SOL     OW 6403   0.075   4.684   2.778
 2116SOL    HW1 6404   0.081   4.729   2.694
 2116SOL    HW2 6405   4.959   4.636   2.774
 2117SOL     OW 6406   4.241   0.291   0.252
 2117SOL    HW1 6407   4.169   0.330   0.202
 2117SOL    HW2 6408   4.227   0.324   0.341
 2118SOL     OW 6409   2.257   4.887   2.771
 2118SOL    HW1 6410   2.246   4.959   2.709
 2118SOL    HW2 6411   2.233   4.809   2.722
 2119SOL     OW 6412   1.990   4.655   4.108
 2119SOL    HW1 6413   1.950   4.664   4.021
 2119SOL    HW2 6414   2.083   4.675   4.094
 2120SOL     OW 6415   1.399   1.406   2.208
 2120SOL    HW1 6416   1.329   1.448   2.258
 2120SOL    HW2 6417   1.418   1.326   2.256
 2121SOL     OW 6418   2.478   4.510   1.304
 2121SOL    HW1 6419   2.413   4.524   1.236
 2121SOL    HW2 6420   2.556   4.478   1.258
 2122SOL     OW 6421   2.166   1.044   2.881
 2122SOL    HW1 6422   2.211   1.001   2.955
 2122SOL    HW2 6423   2.145   1.131   2.913
 2123SOL     OW 6424   2.095   3.108   2.385
 2123SOL    HW1 6425   2.031   3.114   2.314
 2123SOL    HW2 6426   2.154   3.038   2.357
 2124SOL     OW 6427   1.817   0.971   0.587
 2124SOL    HW1 6428   1.809   0.993   0.494
 2124SOL    HW2 6429   1.731   0.936   0.610
 2125SOL     OW 6430   3.755   4.258   1.531
 2125SOL    HW1 6431   3.806   4.178   1.516
 2125SOL    HW2 6432   3.820   4.326   1.546
 2126SOL     OW 6433   4.880   3.661   2.997
 2126SOL    HW1 6434   4.805   3.607   3.023
 2126SOL    HW2 6435   4.860   3.748   3.032
 2127SOL     OW 6436   2.001   0.815   3.203
 2127SOL    HW1 6437   2.023   0.742   3.146
 2127SOL    HW2 6438   1.935   0.864   3.154
 2128SOL     OW 6439   1.358   1.697   4.347
 2128SOL    HW1 6440   1.405   1.615   4.335
 2128SOL    HW2 6441   1.351   1.734   4.259
 2129SOL     OW 6442   1.315   0.212   4.826
 2129SOL    HW1 6443   1.288   0.260   4.904
 2129SOL    HW2 6444   1.234   0.194   4.779
 2130SOL     OW 6445   0.973   0.793   3.174
 2130SOL    HW1 6446   1.018   0.819   3.093
 2130SOL    HW2 6447   0.893   0.845   3.174
 2131SOL     OW 6448   1.471   2.788   4.806
 2131SOL    HW1 6449   1.377   2.770   4.807
 2131SOL    HW2 6450   1.498   2.782   4.898
 2132SOL     OW 6451   0.427   4.138   4.346
 2132SOL    HW1 6452   0.496   4.072   4.352
 2132SOL    HW2 6453   0.458   4.211   4.399
 2133SOL     OW 6454   0.464   3.257   4.518
 2133SOL    HW1 6455   0.545   3.307   4.509
 2133SOL    HW2 6456   0.488   3.168   4.491
 2134SOL     OW 6457   1.804   0.191   1.215
 2134SOL    HW1 6458   1.731   0.129   1.221
 2134SOL    HW2 6459   1.849   0.182   1.299
 2135SOL     OW 6460   3.586   1.906   4.161
 2135SOL    HW1 6461   3.608   1.905   4.254
 2135SOL    HW2 6462   3.654   1.959   4.121
 2136SOL     OW 6463   0.104   2.292   4.277
 2136SOL    HW1 6464   0.075   2.287   4.185
 2136SOL    HW2 6465   0.026   2.269   4.328
 2137SOL     OW 6466   0.422   0.712   3.504
 2137SOL    HW1 6467   0.443   0.648   3.435
 2137SOL    HW2 6468   0.333   0.740   3.484
 2138SOL     OW 6469   0.426   0.597   1.951
 2138SOL    HW1 6470   0.395   0.572   2.039
 2138SOL    HW2 6471   0.518   0.620   1.964
 2139SOL     OW 6472   3.621   3.567   2.418
 2139SOL    HW1 6473   3.673   3.495   2.452
 2139SOL    HW2 6474   3.684   3.619   2.367
 2140SOL     OW 6475   3.302   3.001   1.747
 2140SOL    HW1 6476   3.315   2.908   1.767
 2140SOL    HW2 6477   3.220   3.024   1.792
 2141SOL     OW 6478   0.587   3.373   3.727
 2141SOL    HW1 6479   0.536   3.294   3.711
 2141SOL    HW2 6480   0.677   3.342   3.736
 2142SOL     OW 6481   0.902   3.857   1.336
 2142SOL    HW1 6482   0.825   3.897   1.295
 2142SOL    HW2 6483   0.967   3.927   1.337
 2143SOL     OW 6484   0.256   1.115   0.893
 2143SOL    HW1 6485   0.261   1.153   0.981
 2143SOL    HW2 6486   0.321   1.044   0.894
 2144SOL     OW 6487   3.799   3.004   2.537
 2144SOL    HW1 6488   3.883   2.971   2.570
 2144SOL    HW2 6489   3.735   2.980   2.604
 2145SOL     OW 6490   2.065   3.762   3.220
 2145SOL    HW1 6491   2.016   3.680   3.216
 2145SOL    HW2 6492   2.002   3.829   3.191
 2146SOL     OW 6493   1.575   1.848   1.750
 2146SOL    HW1 6494   1.566   1.917   1.684
 2146SOL    HW2 6495   1.503   1.864   1.811
 2147SOL     OW 6496   3.532   2.989   0.571
 2147SOL    HW1 6497   3.460   2.977   0.633
 2147SOL    HW2 6498   3.585   3.060   0.609
 2148SOL     OW 6499   4.911   0.709   0.377
 2148SOL    HW1 6500   0.027   0.754   0.393
 2148SOL    HW2 6501   4.843   0.773   0.398
 2149SOL     OW 6502   4.339   1.740   1.769
 2149SOL    HW1 6503   4.381   1.825   1.754
 2149SOL    HW2 6504   4.411   1.677   1.769
 2150SOL     OW 6505   2.488   2.287   3.780
 2150SOL    HW1 6506   2.413   2.264   3.835
 2150SOL    HW2 6507   2.548   2.333   3.838
 2151SOL     OW 6508   3.601   1.156   1.638
 2151SOL    HW1 6509   3.688   1.149   1.676
 2151SOL    HW2 6510   3.547   1.097   1.689
 2152SOL     OW 6511   0.671   1.589   0.542
 2152SOL    HW1 6512   0.586   1.627   0.565
 2152SOL    HW2 6513   0.735   1.647   0.584
 2153SOL     OW 6514   3.061   3.834   2.915
 2153SOL    HW1 6515   3.031   3.763   2.973
 2153SOL    HW2 6516   3.110   3.789   2.847
 2154SOL     OW 6517   2.979   2.584   4.003
 2154SOL    HW1 6518   3.026   2.552   4.080
 2154SOL    HW2 6519   2.909   2.638   4.038
 2155SOL     OW 6520   2.105   4.466   4.651
 2155SOL    HW1 6521   2.178   4.408   4.629
 2155SOL    HW2 6522   2.142   4.554   4.645
 2156SOL     OW 6523   2.048   2.621   3.822
 2156SOL    HW1 6524   2.056   2.532   3.789
 2156SOL    HW2 6525   2.138   2.653   3.828
 2157SOL     OW 6526   1.245   4.682   2.983
 2157SOL    HW1 6527   1.248   4.738   2.905
 2157SOL    HW2 6528   1.156   4.692   3.016
 2158SOL     OW 6529   4.721   0.092   4.724
 2158SOL    HW1 6530   4.732   0.092   4.629
 2158SOL    HW2 6531   4.740   0.182   4.751
 2159SOL     OW 6532   3.238   4.131   2.080
 2159SOL    HW1 6533   3.191   4.072   2.140
 2159SOL    HW2 6534   3.297   4.180   2.137
 2160SOL     OW 6535   3.424   0.571   3.536
 2160SOL    HW1 6536   3.338   0.554   3.498
 2160SOL    HW2 6537   3.433   0.666   3.533
 2161SOL     OW 6538   2.668   1.227   1.041
 2161SOL    HW1 6539   2.626   1.263   0.963
 2161SOL    HW2 6540   2.643   1.134   1.041
 2162SOL     OW 6541   3.765   4.076   0.948
 2162SOL    HW1 6542   3.842   4.077   1.006
 2162SOL    HW2 6543   3.752   4.168   0.925
 2163SOL     OW 6544   0.063   4.448   3.140
 2163SOL    HW1 6545   0.136   4.397   3.105
 2163SOL    HW2 6546   0.012   4.385   3.190
 2164SOL     OW 6547   0.009   1.049   4.739
 2164SOL    HW1 6548   0.019   0.954   4.734
 2164SOL    HW2 6549   0.067   1.083   4.672
 2165SOL     OW 6550   4.220   1.402   4.934
 2165SOL    HW1 6551   4.218   1.308   4.913
 2165SOL    HW2 6552   4.280   1.407   0.042
 2166SOL     OW 6553   2.725   1.233   1.807
 2166SOL    HW1 6554   2.686   1.291   1.873
 2166SOL    HW2 6555   2.725   1.285   1.727
 2167SOL     OW 6556   3.063   0.595   3.755
 2167SOL    HW1 6557   3.107   0.542   3.689
 2167SOL    HW2 6558   3.117   0.674   3.762
 2168SOL     OW 6559   3.255   0.522   1.986
 2168SOL    HW1 6560   3.225   0.448   1.934
 2168SOL    HW2 6561   3.178   0.578   1.994
 2169SOL     OW 6562   0.248   2.158   3.384
 2169SOL    HW1 6563   0.203   2.074   3.378
 2169SOL    HW2 6564   0.178   2.222   3.400
 2170SOL     OW 6565   2.388   0.361   1.684
 2170SOL    HW1 6566   2.461   0.421   1.699
 2170SOL    HW2 6567   2.376   0.361   1.589
 2171SOL     OW 6568   4.449   1.049   1.830
 2171SOL    HW1 6569   4.407   1.022   1.749
 2171SOL    HW2 6570   4.507   0.977   1.853
 2172SOL     OW 6571   1.756   3.663   1.193
 2172SOL    HW1 6572   1.832   3.718   1.176
 2172SOL    HW2 6573   1.769   3.631   1.283
 2173SOL     OW 6574   3.854   1.073   3.138
 2173SOL    HW1 6575   3.826   1.091   3.048
 2173SOL    HW2 6576   3.873   0.979   3.139
 2174SOL     OW 6577   0.553   0.761   0.270
 2174SOL    HW1 6578   0.528   0.798   0.354
 2174SOL    HW2 6579   0.635   0.805   0.247
 2175SOL     OW 6580   3.233   2.146   0.682
 2175SOL    HW1 6581   3.165   2.170   0.745
 2175SOL    HW2 6582   3.190   2.151   0.596
 2176SOL     OW 6583   3.976   0.557   3.294
 2176SOL    HW1 6584   3.894   0.522   3.261
 2176SOL    HW2 6585   4.040   0.538   3.226
 2177SOL     OW 6586   1.634   1.470   2.700
 2177SOL    HW1 6587   1.628   1.406   2.629
 2177SOL    HW2 6588   1.703   1.436   2.757
 2178SOL     OW 6589   2.876   1.056   4.751
 2178SOL    HW1 6590   2.865   1.137   4.799
 2178SOL    HW2 6591   2.952   1.071   4.695
 2179SOL     OW 6592   0.811   3.529   0.495
 2179SOL    HW1 6593   0.859   3.470   0.436
 2179SOL    HW2 6594   0.738   3.561   0.442
 2180SOL     OW 6595   0.415   3.704   0.505
 2180SOL    HW1 6596   0.333   3.726   0.548
 2180SOL    HW2 6597   0.392   3.633   0.444
 2181SOL     OW 6598   3.335   1.850   3.537
 2181SOL    HW1 6599   3.260   1.902   3.510
 2181SOL    HW2 6600   3.397   1.857   3.465
 2182SOL     OW 6601   4.808   4.783   3.815
 2182SOL    HW1 6602   4.784   4.853   3.755
 2182SOL    HW2 6603   4.727   4.734   3.828
 2183SOL     OW 6604   4.788   1.709   4.575
 2183SOL    HW1 6605   4.834   1.689   4.657
 2183SOL    HW2 6606   4.720   1.642   4.570
 2184SOL     OW 6607   3.582   0.031   3.726
 2184SOL    HW1 6608   3.573   0.107   3.782
 2184SOL    HW2 6609   3.495   0.018   3.688
 2185SOL     OW 6610   4.298   1.099   4.443
 2185SOL    HW1 6611   4.240   1.118   4.517
 2185SOL    HW2 6612   4.358   1.032   4.475
 2186SOL     OW 6613   0.523   4.648   4.184
 2186SOL    HW1 6614   0.495   4.665   4.095
 2186SOL    HW2 6615   0.596   4.586   4.175
 2187SOL     OW 6616   0.983   4.758   3.053
 2187SOL    HW1 6617   0.959   4.698   2.983
 2187SOL    HW2 6618   0.929   4.732   3.128
 2188SOL     OW 6619   2.422   4.835   4.083
 2188SOL    HW1 6620   2.340   4.795   4.054
 2188SOL    HW2 6621   2.489   4.769   4.063
 2189SOL     OW 6622   1.112   0.762   4.525
 2189SOL    HW1 6623   1.085   0.847   4.490
 2189SOL    HW2 6624   1.200   0.749   4.490
 2190SOL     OW 6625   1.247   0.307   2.589
 2190SOL    HW1 6626   1.160   0.266   2.591
 2190SOL    HW2 6627   1.239   0.382   2.648
 2191SOL     OW 6628   4.662   4.033   0.330
 2191SOL    HW1 6629   4.573   4.066   0.339
 2191SOL    HW2 6630   4.699   4.083   0.257
 2192SOL     OW 6631   4.823   1.025   0.174
 2192SOL    HW1 6632   4.770   1.001   0.097
 2192SOL    HW2 6633   4.863   1.108   0.151
 2193SOL     OW 6634   0.908   3.992   0.319
 2193SOL    HW1 6635   0.881   4.000   0.228
 2193SOL    HW2 6636   0.843   4.043   0.368
 2194SOL     OW 6637   1.582   3.585   0.995
 2194SOL    HW1 6638   1.636   3.609   1.070
 2194SOL    HW2 6639   1.581   3.663   0.940
 2195SOL     OW 6640   2.678   1.319   0.526
 2195SOL    HW1 6641   2.715   1.379   0.591
 2195SOL    HW2 6642   2.719   1.345   0.443
 2196SOL     OW 6643   1.768   0.183   3.481
 2196SOL    HW1 6644   1.862   0.194   3.464
 2196SOL    HW2 6645   1.736   0.271   3.498
 2197SOL     OW 6646   1.693   0.505   0.028
 2197SOL    HW1 6647   1.727   0.423   4.960
 2197SOL    HW2 6648   1.714   0.502   0.121
 2198SOL     OW 6649   3.755   3.908   3.008
 2198SOL    HW1 6650   3.801   3.824   3.008
 2198SOL    HW2 6651   3.694   3.902   2.935
 2199SOL     OW 6652   1.079   4.466   2.705
 2199SOL    HW1 6653   1.156   4.511   2.739
 2199SOL    HW2 6654   1.041   4.526   2.641
 2200SOL     OW 6655   1.998   3.282   0.101
 2200SOL    HW1 6656   2.009   3.187   0.094
 2200SOL    HW2 6657   1.910   3.299   0.067
 2201SOL     OW 6658   3.930   2.989   0.422
 2201SOL    HW1 6659   3.934   3.033   0.506
 2201SOL    HW2 6660   3.837   2.972   0.407
 2202SOL     OW 6661   4.048   2.784   3.802
 2202SOL    HW1 6662   4.040   2.841   3.878
 2202SOL    HW2 6663   4.138   2.798   3.771
 2203SOL     OW 6664   1.303   2.441   0.172
 2203SOL    HW1 6665   1.294   2.536   0.174
 2203SOL    HW2 6666   1.321   2.416   0.263
 2204SOL     OW 6667   1.405   3.759   1.242
 2204SOL    HW1 6668   1.373   3.790   1.326
 2204SOL    HW2 6669   1.437   3.837   1.197
 2205SOL     OW 6670   1.647   4.908   3.351
 2205SOL    HW1 6671   1.585   4.882   3.419
 2205SOL    HW2 6672   1.685   0.023   3.382
 2206SOL     OW 6673   0.122   4.522   1.146
 2206SOL    HW1 6674   0.027   4.530   1.152
 2206SOL    HW2 6675   0.138   4.427   1.143
 2207SOL     OW 6676   4.323   1.433   0.470
 2207SOL    HW1 6677   4.364   1.503   0.520
 2207SOL    HW2 6678   4.375   1.355   0.491
 2208SOL     OW 6679   0.149   4.495   2.510
 2208SOL    HW1 6680   0.213   4.471   2.578
 2208SOL    HW2 6681   0.169   4.436   2.437
 2209SOL     OW 6682   0.717   4.571   3.575
 2209SOL    HW1 6683   0.655   4.501   3.594
 2209SOL    HW2 6684   0.668   4.652   3.588
 2210SOL     OW 6685   1.881   3.141   1.330
 2210SOL    HW1 6686   1.817   3.133   1.259
 2210SOL    HW2 6687   1.938   3.213   1.304
 2211SOL     OW 6688   3.083   3.952   4.670
 2211SOL    HW1 6689   2.988   3.958   4.677
 2211SOL    HW2 6690   3.114   4.042   4.675
 2212SOL     OW 6691   2.896   1.039   3.971
 2212SOL    HW1 6692   2.971   1.098   3.983
 2212SOL    HW2 6693   2.827   1.075   4.027
 2213SOL     OW 6694   4.557   3.702   2.905
 2213SOL    HW1 6695   4.464   3.723   2.909
 2213SOL    HW2 6696   4.573   3.648   2.982
 2214SOL     OW 6697   3.230   4.804   3.183
 2214SOL    HW1 6698   3.292   4.851   3.238
 2214SOL    HW2 6699   3.283   4.765   3.114
 2215SOL     OW 6700   1.776   4.620   3.540
 2215SOL    HW1 6701   1.765   4.707   3.577
 2215SOL    HW2 6702   1.869   4.614   3.519
 2216SOL     OW 6703   2.302   4.104   0.773
 2216SOL    HW1 6704   2.360   4.163   0.725
 2216SOL    HW2 6705   2.336   4.016   0.754
 2217SOL     OW 6706   4.569   0.029   0.318
 2217SOL    HW1 6707   4.494   0.027   0.260
 2217SOL    HW2 6708   4.536   0.069   0.399
 2218SOL     OW 6709   2.168   4.231   0.441
 2218SOL    HW1 6710   2.263   4.245   0.441
 2218SOL    HW2 6711   2.141   4.249   0.351
 2219SOL     OW 6712   0.042   3.843   4.193
 2219SOL    HW1 6713   0.064   3.897   4.269
 2219SOL    HW2 6714   0.032   3.905   4.121
 2220SOL     OW 6715   0.330   3.723   1.667
 2220SOL    HW1 6716   0.243   3.744   1.700
 2220SOL    HW2 6717   0.384   3.713   1.746
 2221SOL     OW 6718   2.646   3.425   0.969
 2221SOL    HW1 6719   2.650   3.396   1.060
 2221SOL    HW2 6720   2.552   3.438   0.952
 2222SOL     OW 6721   4.456   2.214   2.357
 2222SOL    HW1 6722   4.534   2.270   2.354
 2222SOL    HW2 6723   4.383   2.274   2.358
 2223SOL     OW 6724   2.191   1.050   4.055
 2223SOL    HW1 6725   2.189   1.054   4.151
 2223SOL    HW2 6726   2.134   1.122   4.027
 2224SOL     OW 6727   0.594   3.561   0.847
 2224SOL    HW1 6728   0.576   3.484   0.792
 2224SOL    HW2 6729   0.690   3.570   0.845
 2225SOL     OW 6730   2.042   3.111   3.319
 2225SOL    HW1 6731   2.030   3.203   3.345
 2225SOL    HW2 6732   1.989   3.062   3.383
 2226SOL     OW 6733   4.678   2.238   3.037
 2226SOL    HW1 6734   4.632   2.166   3.080
 2226SOL    HW2 6735   4.673   2.310   3.100
 2227SOL     OW 6736   0.951   3.740   1.066
 2227SOL    HW1 6737   0.882   3.793   1.106
 2227SOL    HW2 6738   0.926   3.735   0.973
 2228SOL     OW 6739   2.182   1.472   3.934
 2228SOL    HW1 6740   2.261   1.451   3.985
 2228SOL    HW2 6741   2.119   1.405   3.960
 2229SOL     OW 6742   2.526   3.788   0.891
 2229SOL    HW1 6743   2.576   3.870   0.892
 2229SOL    HW2 6744   2.477   3.789   0.974
 2230SOL     OW 6745   4.580   1.960   3.737
 2230SOL    HW1 6746   4.544   2.030   3.792
 2230SOL    HW2 6747   4.603   1.890   3.798
 2231SOL     OW 6748   0.058   4.002   4.875
 2231SOL    HW1 6749   0.087   4.081   4.830
 2231SOL    HW2 6750   0.048   3.937   4.805
 2232SOL     OW 6751   1.158   4.712   0.742
 2232SOL    HW1 6752   1.104   4.633   0.747
 2232SOL    HW2 6753   1.163   4.743   0.832
 2233SOL     OW 6754   1.267   4.958   2.255
 2233SOL    HW1 6755   1.281   4.954   2.349
 2233SOL    HW2 6756   1.171   4.955   2.245
 2234SOL     OW 6757   0.980   4.182   1.602
 2234SOL    HW1 6758   0.969   4.277   1.612
 2234SOL    HW2 6759   1.075   4.170   1.596
 2235SOL     OW 6760   2.775   0.643   3.367
 2235SOL    HW1 6761   2.781   0.548   3.363
 2235SOL    HW2 6762   2.791   0.665   3.459
 2236SOL     OW 6763   4.009   4.358   4.459
 2236SOL    HW1 6764   4.100   4.359   4.430
 2236SOL    HW2 6765   3.964   4.307   4.391
 2237SOL     OW 6766   0.431   2.300   4.083
 2237SOL    HW1 6767   0.423   2.235   4.013
 2237SOL    HW2 6768   0.496   2.264   4.142
 2238SOL     OW 6769   4.529   4.075   4.089
 2238SOL    HW1 6770   4.560   4.006   4.030
 2238SOL    HW2 6771   4.597   4.081   4.157
 2239SOL     OW 6772   2.620   0.471   4.224
 2239SOL    HW1 6773   2.557   0.402   4.244
 2239SOL    HW2 6774   2.575   0.552   4.249
 2240SOL     OW 6775   0.648   0.605   2.114
 2240SOL    HW1 6776   0.631   0.628   2.206
 2240SOL    HW2 6777   0.727   0.552   2.117
 2241SOL     OW 6778   2.874   3.800   0.841
 2241SOL    HW1 6779   2.867   3.813   0.747
 2241SOL    HW2 6780   2.820   3.870   0.879
 2242SOL     OW 6781   2.437   4.024   3.552
 2242SOL    HW1 6782   2.344   4.001   3.551
 2242SOL    HW2 6783   2.473   3.984   3.473
 2243SOL     OW 6784   2.427   4.771   1.896
 2243SOL    HW1 6785   2.371   4.788   1.821
 2243SOL    HW2 6786   2.372   4.790   1.972
 2244SOL     OW 6787   1.256   3.472   3.810
 2244SOL    HW1 6788   1.346   3.482   3.779
 2244SOL    HW2 6789   1.234   3.556   3.848
 2245SOL     OW 6790   1.610   0.213   1.849
 2245SOL    HW1 6791   1.536   0.252   1.801
 2245SOL    HW2 6792   1.584   0.217   1.941
 2246SOL     OW 6793   1.892   1.191   0.005
 2246SOL    HW1 6794   1.960   1.148   0.056
 2246SOL    HW2 6795   1.936   1.265   4.930
 2247SOL     OW 6796   3.994   3.566   3.371
 2247SOL    HW1 6797   3.955   3.648   3.341
 2247SOL    HW2 6798   4.008   3.579   3.464
 2248SOL     OW 6799   3.357   2.127   2.615
 2248SOL    HW1 6800   3.400   2.114   2.531
 2248SOL    HW2 6801   3.267   2.096   2.601
 2249SOL     OW 6802   3.169   2.189   0.398
 2249SOL    HW1 6803   3.234   2.251   0.366
 2249SOL    HW2 6804   3.105   2.183   0.328
 2250SOL     OW 6805   4.341   2.384   0.084
 2250SOL    HW1 6806   4.250   2.399   0.108
 2250SOL    HW2 6807   4.390   2.453   0.129
 2251SOL     OW 6808   2.705   2.203   1.710
 2251SOL    HW1 6809   2.781   2.214   1.767
 2251SOL    HW2 6810   2.724   2.124   1.659
 2252SOL     OW 6811   4.096   3.191   0.130
 2252SOL    HW1 6812   4.085   3.269   0.077
 2252SOL    HW2 6813   4.170   3.210   0.188
 2253SOL     OW 6814   2.445   2.533   4.177
 2253SOL    HW1 6815   2.418   2.466   4.240
 2253SOL    HW2 6816   2.535   2.554   4.201
 2254SOL     OW 6817   0.204   4.912   2.308
 2254SOL    HW1 6818   0.265   4.950   2.245
 2254SOL    HW2 6819   0.148   0.018   2.334
 2255SOL     OW 6820   4.527   1.758   3.945
 2255SOL    HW1 6821   4.469   1.705   3.999
 2255SOL    HW2 6822   4.496   1.745   3.855
 2256SOL     OW 6823   2.646   0.983   4.946
 2256SOL    HW1 6824   2.604   0.918   4.890
 2256SOL    HW2 6825   2.730   1.001   4.903
 2257SOL     OW 6826   4.107   4.388   3.627
 2257SOL    HW1 6827   4.145   4.369   3.714
 2257SOL    HW2 6828   4.166   4.453   3.589
 2258SOL     OW 6829   0.441   2.996   4.804
 2258SOL    HW1 6830   0.462   3.000   4.898
 2258SOL    HW2 6831   0.506   3.053   4.763
 2259SOL     OW 6832   0.954   4.184   0.969
 2259SOL    HW1 6833   0.921   4.131   0.897
 2259SOL    HW2 6834   1.047   4.162   0.976
 2260SOL     OW 6835   3.227   0.609   1.594
 2260SOL    HW1 6836   3.259   0.574   1.510
 2260SOL    HW2 6837   3.230   0.704   1.583
 2261SOL     OW 6838   3.406   0.527   4.040
 2261SOL    HW1 6839   3.381   0.573   3.960
 2261SOL    HW2 6840   3.501   0.537   4.046
 2262SOL     OW 6841   1.923   0.606   3.448
 2262SOL    HW1 6842   2.007   0.563   3.438
 2262SOL    HW2 6843   1.945   0.698   3.464
 2263SOL     OW 6844   1.389   1.698   0.679
 2263SOL    HW1 6845   1.483   1.682   0.682
 2263SOL    HW2 6846   1.349   1.612   0.692
 2264SOL     OW 6847   4.060   1.083   1.118
 2264SOL    HW1 6848   4.105   1.164   1.141
 2264SOL    HW2 6849   3.980   1.111   1.074
 2265SOL     OW 6850   3.258   0.144   4.265
 2265SOL    HW1 6851   3.164   0.130   4.256
 2265SOL    HW2 6852   3.282   0.094   4.343
 2266SOL     OW 6853   4.332   3.660   4.009
 2266SOL    HW1 6854   4.285   3.589   3.964
 2266SOL    HW2 6855   4.400   3.615   4.060
 2267SOL     OW 6856   3.451   1.887   0.292
 2267SOL    HW1 6857   3.538   1.927   0.283
 2267SOL    HW2 6858   3.452   1.814   0.231
 2268SOL     OW 6859   3.097   0.743   0.343
 2268SOL    HW1 6860   3.102   0.719   0.251
 2268SOL    HW2 6861   3.043   0.674   0.383
 2269SOL     OW 6862   3.035   4.602   2.716
 2269SOL    HW1 6863   3.051   4.511   2.692
 2269SOL    HW2 6864   3.041   4.650   2.633
 2270SOL     OW 6865   0.373   1.252   2.277
 2270SOL    HW1 6866   0.450   1.207   2.310
 2270SOL    HW2 6867   0.320   1.270   2.355
 2271SOL     OW 6868   4.694   1.340   2.363
 2271SOL    HW1 6869   4.648   1.300   2.289
 2271SOL    HW2 6870   4.739   1.268   2.406
 2272SOL     OW 6871   1.149   1.210   2.252
 2272SOL    HW1 6872   1.064   1.222   2.293
 2272SOL    HW2 6873   1.131   1.159   2.173
 2273SOL     OW 6874   4.369   3.224   4.078
 2273SOL    HW1 6875   4.375   3.251   4.170
 2273SOL    HW2 6876   4.296   3.274   4.043
 2274SOL     OW 6877   1.895   3.820   4.170
 2274SOL    HW1 6878   1.879   3.902   4.124
 2274SOL    HW2 6879   1.958   3.842   4.238
 2275SOL     OW 6880   1.451   4.409   3.882
 2275SOL    HW1 6881   1.478   4.479   3.822
 2275SOL    HW2 6882   1.379   4.448   3.932
 2276SOL     OW 6883   1.910   4.546   2.874
 2276SOL    HW1 6884   1.991   4.591   2.849
 2276SOL    HW2 6885   1.841   4.609   2.851
 2277SOL     OW 6886   4.851   4.287   2.524
 2277SOL    HW1 6887   4.937   4.325   2.504
 2277SOL    HW2 6888   4.790   4.360   2.513
 2278SOL     OW 6889   0.409   1.546   2.309
 2278SOL    HW1 6890   0.428   1.460   2.345
 2278SOL    HW2 6891   0.337   1.531   2.248
 2279SOL     OW 6892   2.911   4.073   0.315
 2279SOL    HW1 6893   2.823   4.038   0.298
 2279SOL    HW2 6894   2.955   4.069   0.230
 2280SOL     OW 6895   4.930   0.417   1.203
 2280SOL    HW1 6896   4.882   0.425   1.285
 2280SOL    HW2 6897   4.964   0.504   1.186
 2281SOL     OW 6898   0.208   3.986   1.103
 2281SOL    HW1 6899   0.241   3.921   1.165
 2281SOL    HW2 6900   0.166   3.935   1.034
 2282SOL     OW 6901   2.939   1.219   2.016
 2282SOL    HW1 6902   2.917   1.232   1.924
 2282SOL    HW2 6903   2.854   1.201   2.058
 2283SOL     OW 6904   1.010   1.927   1.881
 2283SOL    HW1 6905   0.928   1.976   1.891
 2283SOL    HW2 6906   1.073   1.992   1.849
 2284SOL     OW 6907   2.632   0.037   4.212
 2284SOL    HW1 6908   2.604   0.065   4.125
 2284SOL    HW2 6909   2.597   0.104   4.271
 2285SOL     OW 6910   2.974   2.188   3.708
 2285SOL    HW1 6911   2.933   2.274   3.718
 2285SOL    HW2 6912   3.039   2.199   3.639
 2286SOL     OW 6913   4.661   1.032   1.517
 2286SOL    HW1 6914   4.619   1.112   1.551
 2286SOL    HW2 6915   4.654   1.040   1.422
 2287SOL     OW 6916   0.045   1.569   3.583
 2287SOL    HW1 6917   0.094   1.495   3.620
 2287SOL    HW2 6918   0.048   1.636   3.651
 2288SOL     OW 6919   2.766   3.036   1.607
 2288SOL    HW1 6920   2.689   2.992   1.572
 2288SOL    HW2 6921   2.743   3.058   1.697
 2289SOL     OW 6922   3.125   1.521   2.033
 2289SOL    HW1 6923   3.093   1.464   2.103
 2289SOL    HW2 6924   3.209   1.482   2.007
 2290SOL     OW 6925   3.411   0.411   0.100
 2290SOL    HW1 6926   3.425   0.496   0.059
 2290SOL    HW2 6927   3.316   0.396   0.093
 2291SOL     OW 6928   4.034   3.118   2.823
 2291SOL    HW1 6929   4.037   3.041   2.767
 2291SOL    HW2 6930   3.961   3.102   2.883
 2292SOL     OW 6931   0.735   3.021   0.470
 2292SOL    HW1 6932   0.759   3.039   0.561
 2292SOL    HW2 6933   0.807   3.057   0.419
 2293SOL     OW 6934   0.079   4.757   4.901
 2293SOL    HW1 6935   0.117   4.741   4.814
 2293SOL    HW2 6936   0.050   4.670   4.930
 2294SOL     OW 6937   1.171   2.126   0.988
 2294SOL    HW1 6938   1.120   2.170   0.920
 2294SOL    HW2 6939   1.140   2.036   0.988
 2295SOL     OW 6940   2.207   3.837   1.022
 2295SOL    HW1 6941   2.233   3.750   0.990
 2295SOL    HW2 6942   2.129   3.858   0.972
 2296SOL     OW 6943   4.731   1.532   4.798
 2296SOL    HW1 6944   4.779   1.459   4.760
 2296SOL    HW2 6945   4.641   1.521   4.764
 2297SOL     OW 6946   3.617   1.295   1.125
 2297SOL    HW1 6947   3.644   1.357   1.193
 2297SOL    HW2 6948   3.581   1.350   1.056
 2298SOL     OW 6949   2.673   0.316   2.023
 2298SOL    HW1 6950   2.756   0.309   1.975
 2298SOL    HW2 6951   2.646   0.407   2.012
 2299SOL     OW 6952   2.723   1.555   4.711
 2299SOL    HW1 6953   2.736   1.613   4.637
 2299SOL    HW2 6954   2.811   1.536   4.743
 2300SOL     OW 6955   0.252   3.000   2.428
 2300SOL    HW1 6956   0.279   3.089   2.408
 2300SOL    HW2 6957   0.166   2.991   2.386
 2301SOL     OW 6958   0.883   2.279   2.302
 2301SOL    HW1 6959   0.929   2.268   2.219
 2301SOL    HW2 6960   0.791   2.285   2.278
 2302SOL     OW 6961   4.586   2.003   3.188
 2302SOL    HW1 6962   4.671   1.996   3.231
 2302SOL    HW2 6963   4.527   2.034   3.256
 2303SOL     OW 6964   1.651   3.568   1.485
 2303SOL    HW1 6965   1.590   3.541   1.553
 2303SOL    HW2 6966   1.681   3.655   1.512
 2304SOL     OW 6967   2.440   3.380   0.736
 2304SOL    HW1 6968   2.344   3.385   0.730
 2304SOL    HW2 6969   2.459   3.286   0.734
 2305SOL     OW 6970   2.095   3.338   1.298
 2305SOL    HW1 6971   2.060   3.415   1.342
 2305SOL    HW2 6972   2.190   3.350   1.299
 2306SOL     OW 6973   0.339   3.018   0.617
 2306SOL    HW1 6974   0.350   2.923   0.618
 2306SOL    HW2 6975   0.400   3.050   0.684
 2307SOL     OW 6976   0.236   4.443   4.777
 2307SOL    HW1 6977   0.164   4.380   4.771
 2307SOL    HW2 6978   0.245   4.460   4.871
 2308SOL     OW 6979   1.912   1.731   4.386
 2308SOL    HW1 6980   1.989   1.763   4.338
 2308SOL    HW2 6981   1.874   1.809   4.426
 2309SOL     OW 6982   3.174   4.106   4.179
 2309SOL    HW1 6983   3.086   4.068   4.179
 2309SOL    HW2 6984   3.209   4.083   4.265
 2310SOL     OW 6985   0.590   3.398   1.767
 2310SOL    HW1 6986   0.553   3.310   1.760
 2310SOL    HW2 6987   0.570   3.440   1.683
 2311SOL     OW 6988   2.433   0.451   0.907
 2311SOL    HW1 6989   2.404   0.540   0.887
 2311SOL    HW2 6990   2.476   0.422   0.826
 2312SOL     OW 6991   4.457   1.736   1.019
 2312SOL    HW1 6992   4.452   1.822   1.062
 2312SOL    HW2 6993   4.527   1.746   0.955
 2313SOL     OW 6994   4.757   1.270   1.278
 2313SOL    HW1 6995   4.764   1.365   1.284
 2313SOL    HW2 6996   4.847   1.240   1.263
 2314SOL     OW 6997   0.916   3.389   4.360
 2314SOL    HW1 6998   0.880   3.416   4.276
 2314SOL    HW2 6999   0.861   3.316   4.388
 2315SOL     OW 7000   3.828   0.021   2.187
 2315SOL    HW1 7001   3.826   0.113   2.160
 2315SOL    HW2 7002   3.916   0.008   2.222
 2316SOL     OW 7003   1.264   4.292   0.403
 2316SOL    HW1 7004   1.228   4.207   0.376
 2316SOL    HW2 7005   1.345   4.300   0.354
 2317SOL     OW 7006   3.835   4.459   3.914
 2317SOL    HW1 7007   3.846   4.515   3.992
 2317SOL    HW2 7008   3.889   4.382   3.932
 2318SOL     OW 7009   3.447   0.275   4.782
 2318SOL    HW1 7010   3.460   0.335   4.856
 2318SOL    HW2 7011   3.489   0.194   4.810
 2319SOL     OW 7012   3.234   2.388   2.598
 2319SOL    HW1 7013   3.146   2.368   2.632
 2319SOL    HW2 7014   3.275   2.303   2.585
 2320SOL     OW 7015   1.376   2.073   3.446
 2320SOL    HW1 7016   1.313   2.100   3.513
 2320SOL    HW2 7017   1.448   2.035   3.495
 2321SOL     OW 7018   2.078   3.621   2.349
 2321SOL    HW1 7019   2.107   3.530   2.350
 2321SOL    HW2 7020   2.110   3.658   2.431
 2322SOL     OW 7021   0.257   1.889   4.868
 2322SOL    HW1 7022   0.228   1.977   4.889
 2322SOL    HW2 7023   0.346   1.884   4.901
 2323SOL     OW 7024   3.362   1.921   1.505
 2323SOL    HW1 7025   3.454   1.907   1.483
 2323SOL    HW2 7026   3.362   1.940   1.598
 2324SOL     OW 7027   2.054   0.466   0.641
 2324SOL    HW1 7028   2.088   0.380   0.665
 2324SOL    HW2 7029   1.978   0.479   0.699
 2325SOL     OW 7030   3.799   0.601   3.576
 2325SOL    HW1 7031   3.774   0.559   3.494
 2325SOL    HW2 7032   3.811   0.693   3.553
 2326SOL     OW 7033   3.069   4.098   2.986
 2326SOL    HW1 7034   2.985   4.108   3.031
 2326SOL    HW2 7035   3.069   4.007   2.955
 2327SOL     OW 7036   0.164   0.382   1.836
 2327SOL    HW1 7037   0.142   0.410   1.925
 2327SOL    HW2 7038   0.088   0.331   1.808
 2328SOL     OW 7039   1.012   3.307   2.391
 2328SOL    HW1 7040   1.026   3.384   2.447
 2328SOL    HW2 7041   0.917   3.300   2.384
 2329SOL     OW 7042   2.266   3.690   0.059
 2329SOL    HW1 7043   2.277   3.665   0.151
 2329SOL    HW2 7044   2.301   3.778   0.054
 2330SOL     OW 7045   0.367   3.835   3.439
 2330SOL    HW1 7046   0.375   3.880   3.523
 2330SOL    HW2 7047   0.370   3.742   3.462
 2331SOL     OW 7048   1.730   4.924   4.590
 2331SOL    HW1 7049   1.720   4.897   4.681
 2331SOL    HW2 7050   1.679   4.861   4.540
 2332SOL     OW 7051   1.071   0.804   1.694
 2332SOL    HW1 7052   1.113   0.835   1.613
 2332SOL    HW2 7053   1.020   0.878   1.725
 2333SOL     OW 7054   2.532   2.340   2.798
 2333SOL    HW1 7055   2.565   2.308   2.714
 2333SOL    HW2 7056   2.480   2.417   2.776
 2334SOL     OW 7057   0.569   4.329   1.364
 2334SOL    HW1 7058   0.511   4.399   1.335
 2334SOL    HW2 7059   0.511   4.257   1.387
 2335SOL     OW 7060   4.522   3.279   0.070
 2335SOL    HW1 7061   4.574   3.211   0.113
 2335SOL    HW2 7062   4.569   3.360   0.089
 2336SOL     OW 7063   1.513   3.512   2.743
 2336SOL    HW1 7064   1.533   3.606   2.747
 2336SOL    HW2 7065   1.580   3.476   2.684
 2337SOL     OW 7066   2.359   1.820   2.250
 2337SOL    HW1 7067   2.344   1.853   2.339
 2337SOL    HW2 7068   2.428   1.754   2.261
 2338SOL     OW 7069   4.641   3.393   2.800
 2338SOL    HW1 7070   4.727   3.373   2.763
 2338SOL    HW2 7071   4.654   3.476   2.847
 2339SOL     OW 7072   0.590   3.381   2.649
 2339SOL    HW1 7073   0.643   3.340   2.717
 2339SOL    HW2 7074   0.499   3.365   2.676
 2340SOL     OW 7075   4.509   2.696   3.657
 2340SOL    HW1 7076   4.474   2.749   3.586
 2340SOL    HW2 7077   4.571   2.637   3.615
 2341SOL     OW 7078   2.786   0.580   2.251
 2341SOL    HW1 7079   2.868   0.554   2.209
 2341SOL    HW2 7080   2.718   0.561   2.186
 2342SOL     OW 7081   3.783   1.997   4.612
 2342SOL    HW1 7082   3.752   1.985   4.701
 2342SOL    HW2 7083   3.768   2.090   4.593
 2343SOL     OW 7084   2.790   3.180   1.095
 2343SOL    HW1 7085   2.842   3.112   1.140
 2343SOL    HW2 7086   2.825   3.263   1.129
 2344SOL     OW 7087   3.241   2.144   2.177
 2344SOL    HW1 7088   3.277   2.227   2.147
 2344SOL    HW2 7089   3.266   2.081   2.109
 2345SOL     OW 7090   2.997   2.950   4.155
 2345SOL    HW1 7091   3.079   2.909   4.180
 2345SOL    HW2 7092   3.021   3.017   4.091
 2346SOL     OW 7093   1.966   3.531   3.982
 2346SOL    HW1 7094   2.032   3.542   3.913
 2346SOL    HW2 7095   1.989   3.597   4.048
 2347SOL     OW 7096   4.829   2.011   0.721
 2347SOL    HW1 7097   4.781   2.068   0.661
 2347SOL    HW2 7098   4.764   1.984   0.786
 2348SOL     OW 7099   4.183   2.947   3.489
 2348SOL    HW1 7100   4.231   2.980   3.413
 2348SOL    HW2 7101   4.138   2.868   3.457
 2349SOL     OW 7102   0.532   0.829   3.744
 2349SOL    HW1 7103   0.532   0.751   3.799
 2349SOL    HW2 7104   0.533   0.796   3.654
 2350SOL     OW 7105   2.818   4.364   2.873
 2350SOL    HW1 7106   2.757   4.297   2.843
 2350SOL    HW2 7107   2.878   4.377   2.798
 2351SOL     OW 7108   0.093   0.845   0.081
 2351SOL    HW1 7109   0.025   0.845   0.149
 2351SOL    HW2 7110   0.166   0.895   0.120
 2352SOL     OW 7111   0.111   3.860   0.424
 2352SOL    HW1 7112   0.117   3.862   0.329
 2352SOL    HW2 7113   0.175   3.925   0.454
 2353SOL     OW 7114   2.643   4.874   1.685
 2353SOL    HW1 7115   2.580   4.802   1.691
 2353SOL    HW2 7116   2.595   4.951   1.716
 2354SOL     OW 7117   4.103   0.597   1.226
 2354SOL    HW1 7118   4.155   0.535   1.174
 2354SOL    HW2 7119   4.027   0.547   1.254
 2355SOL     OW 7120   1.393   1.050   0.342
 2355SOL    HW1 7121   1.304   1.063   0.375
 2355SOL    HW2 7122   1.434   1.137   0.347
 2356SOL     OW 7123   4.827   1.732   4.123
 2356SOL    HW1 7124   4.841   1.652   4.174
 2356SOL    HW2 7125   4.912   1.776   4.124
 2357SOL     OW 7126   2.847   1.429   2.810
 2357SOL    HW1 7127   2.753   1.417   2.815
 2357SOL    HW2 7128   2.884   1.341   2.821
 2358SOL     OW 7129   2.604   3.684   4.436
 2358SOL    HW1 7130   2.545   3.714   4.506
 2358SOL    HW2 7131   2.689   3.722   4.459
 2359SOL     OW 7132   0.712   0.960   4.001
 2359SOL    HW1 7133   0.636   0.919   4.043
 2359SOL    HW2 7134   0.751   0.890   3.948
 2360SOL     OW 7135   2.300   1.102   0.644
 2360SOL    HW1 7136   2.354   1.174   0.612
 2360SOL    HW2 7137   2.210   1.130   0.626
 2361SOL     OW 7138   3.764   4.019   4.870
 2361SOL    HW1 7139   3.746   4.109   4.841
 2361SOL    HW2 7140   3.690   3.998   4.927
 2362SOL     OW 7141   1.655   2.714   2.331
 2362SOL    HW1 7142   1.722   2.782   2.327
 2362SOL    HW2 7143   1.611   2.730   2.415
 2363SOL     OW 7144   0.271   1.084   4.895
 2363SOL    HW1 7145   0.204   1.019   4.915
 2363SOL    HW2 7146   0.273   1.141   0.006
 2364SOL     OW 7147   3.809   0.820   1.109
 2364SOL    HW1 7148   3.747   0.881   1.069
 2364SOL    HW2 7149   3.854   0.871   1.176
 2365SOL     OW 7150   4.329   0.628   1.820
 2365SOL    HW1 7151   4.259   0.574   1.856
 2365SOL    HW2 7152   4.311   0.632   1.726
 2366SOL     OW 7153   3.803   3.387   3.065
 2366SOL    HW1 7154   3.768   3.319   3.007
 2366SOL    HW2 7155   3.761   3.371   3.149
 2367SOL     OW 7156   2.654   2.334   0.996
 2367SOL    HW1 7157   2.559   2.321   0.994
 2367SOL    HW2 7158   2.671   2.376   1.080
 2368SOL     OW 7159   2.198   1.868   3.972
 2368SOL    HW1 7160   2.216   1.860   3.879
 2368SOL    HW2 7161   2.115   1.915   3.977
 2369SOL     OW 7162   0.644   2.574   4.551
 2369SOL    HW1 7163   0.641   2.488   4.592
 2369SOL    HW2 7164   0.581   2.627   4.600
 2370SOL     OW 7165   2.859   0.690   3.617
 2370SOL    HW1 7166   2.932   0.654   3.668
 2370SOL    HW2 7167   2.818   0.753   3.676
 2371SOL     OW 7168   2.842   1.685   3.508
 2371SOL    HW1 7169   2.839   1.779   3.492
 2371SOL    HW2 7170   2.787   1.671   3.585
 2372SOL     OW 7171   3.468   4.793   1.835
 2372SOL    HW1 7172   3.513   4.837   1.907
 2372SOL    HW2 7173   3.514   4.710   1.826
 2373SOL     OW 7174   4.122   0.172   2.849
 2373SOL    HW1 7175   4.191   0.109   2.869
 2373SOL    HW2 7176   4.162   0.257   2.865
 2374SOL     OW 7177   0.714   4.069   0.811
 2374SOL    HW1 7178   0.671   4.136   0.865
 2374SOL    HW2 7179   0.643   4.033   0.757
 2375SOL     OW 7180   0.253   4.018   2.192
 2375SOL    HW1 7181   0.219   4.072   2.121
 2375SOL    HW2 7182   0.185   3.952   2.207
 2376SOL     OW 7183   2.543   3.056   1.081
 2376SOL    HW1 7184   2.628   3.098   1.068
 2376SOL    HW2 7185   2.563   2.962   1.081
 2377SOL     OW 7186   4.595   3.935   3.612
 2377SOL    HW1 7187   4.574   3.905   3.701
 2377SOL    HW2 7188   4.689   3.954   3.615
 2378SOL     OW 7189   3.917   4.271   2.855
 2378SOL    HW1 7190   3.878   4.285   2.768
 2378SOL    HW2 7191   4.011   4.264   2.838
 2379SOL     OW 7192   3.469   4.806   1.223
 2379SOL    HW1 7193   3.468   4.711   1.214
 2379SOL    HW2 7194   3.380   4.828   1.252
 2380SOL     OW 7195   4.381   3.281   0.498
 2380SOL    HW1 7196   4.368   3.321   0.412
 2380SOL    HW2 7197   4.376   3.354   0.559
 2381SOL     OW 7198   3.265   3.609   1.546
 2381SOL    HW1 7199   3.358   3.590   1.559
 2381SOL    HW2 7200   3.245   3.575   1.459
 2382SOL     OW 7201   2.710   4.682   0.531
 2382SOL    HW1 7202   2.682   4.658   0.443
 2382SOL    HW2 7203   2.652   4.632   0.589
 2383SOL     OW 7204   1.323   0.165   1.752
 2383SOL    HW1 7205   1.307   0.215   1.831
 2383SOL    HW2 7206   1.258   0.198   1.689
 2384SOL     OW 7207   0.822   1.650   1.470
 2384SOL    HW1 7208   0.798   1.734   1.509
 2384SOL    HW2 7209   0.739   1.603   1.460
 2385SOL     OW 7210   0.181   3.288   1.375
 2385SOL    HW1 7211   0.197   3.212   1.319
 2385SOL    HW2 7212   0.266   3.332   1.380
 2386SOL     OW 7213   3.462   2.695   2.721
 2386SOL    HW1 7214   3.380   2.714   2.676
 2386SOL    HW2 7215   3.518   2.656   2.654
 2387SOL     OW 7216   1.925   2.375   2.275
 2387SOL    HW1 7217   1.935   2.470   2.274
 2387SOL    HW2 7218   1.957   2.347   2.189
 2388SOL     OW 7219   3.142   0.841   0.008
 2388SOL    HW1 7220   3.212   0.845   0.074
 2388SOL    HW2 7221   3.184   0.871   4.893
 2389SOL     OW 7222   2.358   2.460   0.348
 2389SOL    HW1 7223   2.364   2.555   0.358
 2389SOL    HW2 7224   2.336   2.429   0.436
 2390SOL     OW 7225   4.019   4.428   0.050
 2390SOL    HW1 7226   4.024   4.357   0.114
 2390SOL    HW2 7227   3.970   4.390   4.943
 2391SOL     OW 7228   2.864   0.534   0.192
 2391SOL    HW1 7229   2.843   0.461   0.135
 2391SOL    HW2 7230   2.796   0.599   0.175
 2392SOL     OW 7231   2.968   2.455   1.071
 2392SOL    HW1 7232   2.903   2.419   1.131
 2392SOL    HW2 7233   2.981   2.545   1.101
 2393SOL     OW 7234   0.830   3.322   3.223
 2393SOL    HW1 7235   0.893   3.301   3.293
 2393SOL    HW2 7236   0.791   3.237   3.200
 2394SOL     OW 7237   2.245   1.281   1.489
 2394SOL    HW1 7238   2.210   1.307   1.404
 2394SOL    HW2 7239   2.201   1.199   1.510
 2395SOL     OW 7240   2.624   1.874   0.184
 2395SOL    HW1 7241   2.677   1.860   0.106
 2395SOL    HW2 7242   2.686   1.903   0.250
 2396SOL     OW 7243   4.799   4.455   1.162
 2396SOL    HW1 7244   4.739   4.503   1.220
 2396SOL    HW2 7245   4.748   4.438   1.083
 2397SOL     OW 7246   4.956   1.032   3.176
 2397SOL    HW1 7247   0.085   1.032   3.181
 2397SOL    HW2 7248   4.928   1.107   3.228
 2398SOL     OW 7249   0.222   0.430   0.941
 2398SOL    HW1 7250   0.280   0.502   0.915
 2398SOL    HW2 7251   0.276   0.373   0.994
 2399SOL     OW 7252   0.797   0.055   3.128
 2399SOL    HW1 7253   0.878   0.005   3.123
 2399SOL    HW2 7254   0.783   0.070   3.221
 2400SOL     OW 7255   1.420   1.333   0.348
 2400SOL    HW1 7256   1.392   1.410   0.398
 2400SOL    HW2 7257   1.509   1.354   0.320
 2401SOL     OW 7258   2.489   4.625   0.689
 2401SOL    HW1 7259   2.459   4.708   0.727
 2401SOL    HW2 7260   2.415   4.595   0.636
 2402SOL     OW 7261   0.512   4.150   4.771
 2402SOL    HW1 7262   0.608   4.147   4.770
 2402SOL    HW2 7263   0.489   4.202   4.694
 2403SOL     OW 7264   3.430   0.392   3.741
 2403SOL    HW1 7265   3.520   0.409   3.771
 2403SOL    HW2 7266   3.413   0.463   3.679
 2404SOL     OW 7267   4.707   3.029   3.007
 2404SOL    HW1 7268   4.692   2.937   2.983
 2404SOL    HW2 7269   4.655   3.079   2.945
 2405SOL     OW 7270   1.338   4.439   3.143
 2405SOL    HW1 7271   1.329   4.514   3.083
 2405SOL    HW2 7272   1.424   4.403   3.123
 2406SOL     OW 7273   3.944   4.384   2.080
 2406SOL    HW1 7274   3.870   4.430   2.121
 2406SOL    HW2 7275   3.913   4.294   2.068
 2407SOL     OW 7276   4.096   4.619   1.240
 2407SOL    HW1 7277   4.101   4.654   1.151
 2407SOL    HW2 7278   4.006   4.638   1.268
 2408SOL     OW 7279   2.134   0.659   2.517
 2408SOL    HW1 7280   2.151   0.599   2.590
 2408SOL    HW2 7281   2.039   0.659   2.507
 2409SOL     OW 7282   2.344   3.513   0.995
 2409SOL    HW1 7283   2.252   3.526   1.021
 2409SOL    HW2 7284   2.338   3.473   0.908
 2410SOL     OW 7285   0.362   4.527   1.320
 2410SOL    HW1 7286   0.271   4.519   1.292
 2410SOL    HW2 7287   0.405   4.574   1.248
 2411SOL     OW 7288   0.343   0.481   2.198
 2411SOL    HW1 7289   0.252   0.479   2.168
 2411SOL    HW2 7290   0.375   0.392   2.183
 2412SOL     OW 7291   2.857   3.126   0.082
 2412SOL    HW1 7292   2.879   3.205   0.034
 2412SOL    HW2 7293   2.778   3.149   0.131
 2413SOL     OW 7294   3.971   0.238   2.395
 2413SOL    HW1 7295   3.974   0.198   2.308
 2413SOL    HW2 7296   3.977   0.164   2.455
 2414SOL     OW 7297   4.261   3.769   3.355
 2414SOL    HW1 7298   4.260   3.732   3.267
 2414SOL    HW2 7299   4.315   3.709   3.406
 2415SOL     OW 7300   4.328   2.784   2.078
 2415SOL    HW1 7301   4.245   2.781   2.030
 2415SOL    HW2 7302   4.395   2.789   2.010
 2416SOL     OW 7303   0.885   1.894   0.286
 2416SOL    HW1 7304   0.798   1.870   0.317
 2416SOL    HW2 7305   0.886   1.869   0.194
 2417SOL     OW 7306   2.665   0.868   2.587
 2417SOL    HW1 7307   2.690   0.792   2.639
 2417SOL    HW2 7308   2.569   0.869   2.590
 2418SOL     OW 7309   2.546   2.908   1.888
 2418SOL    HW1 7310   2.627   2.956   1.905
 2418SOL    HW2 7311   2.509   2.948   1.809
 2419SOL     OW 7312   0.557   0.259   4.542
 2419SOL    HW1 7313   0.556   0.172   4.581
 2419SOL    HW2 7314   0.650   0.278   4.530
 2420SOL     OW 7315   0.734   4.103   2.305
 2420SOL    HW1 7316   0.658   4.065   2.262
 2420SOL    HW2 7317   0.750   4.046   2.380
 2421SOL     OW 7318   4.274   4.407   0.348
 2421SOL    HW1 7319   4.212   4.423   0.419
 2421SOL    HW2 7320   4.359   4.402   0.392
 2422SOL     OW 7321   2.965   1.059   0.466
 2422SOL    HW1 7322   2.962   1.022   0.378
 2422SOL    HW2 7323   2.875   1.051   0.499
 2423SOL     OW 7324   3.602   3.138   1.171
 2423SOL    HW1 7325   3.677   3.083   1.147
 2423SOL    HW2 7326   3.611   3.150   1.265
 2424SOL     OW 7327   2.085   1.176   3.527
 2424SOL    HW1 7328   2.119   1.087   3.521
 2424SOL    HW2 7329   2.034   1.188   3.447
 2425SOL     OW 7330   3.740   4.261   3.430
 2425SOL    HW1 7331   3.793   4.297   3.359
 2425SOL    HW2 7332   3.721   4.336   3.487
 2426SOL     OW 7333   0.300   0.945   0.214
 2426SOL    HW1 7334   0.301   0.881   0.285
 2426SOL    HW2 7335   0.335   1.025   0.253
 2427SOL     OW 7336   4.162   0.455   4.804
 2427SOL    HW1 7337   4.177   0.548   4.821
 2427SOL    HW2 7338   4.249   0.416   4.812
 2428SOL     OW 7339   3.480   2.236   0.672
 2428SOL    HW1 7340   3.386   2.219   0.669
 2428SOL    HW2 7341   3.502   2.266   0.584
 2429SOL     OW 7342   2.037   1.409   2.436
 2429SOL    HW1 7343   2.048   1.498   2.405
 2429SOL    HW2 7344   2.061   1.354   2.361
 2430SOL     OW 7345   4.290   4.943   3.014
 2430SOL    HW1 7346   4.373   4.960   3.059
 2430SOL    HW2 7347   4.230   4.919   3.085
 2431SOL     OW 7348   1.285   3.536   0.974
 2431SOL    HW1 7349   1.318   3.599   1.039
 2431SOL    HW2 7350   1.364   3.494   0.940
 2432SOL     OW 7351   1.435   3.663   1.952
 2432SOL    HW1 7352   1.341   3.647   1.937
 2432SOL    HW2 7353   1.439   3.695   2.042
 2433SOL     OW 7354   1.990   2.290   0.523
 2433SOL    HW1 7355   2.079   2.301   0.489
 2433SOL    HW2 7356   1.936   2.280   0.445
 2434SOL     OW 7357   3.738   2.048   4.871
 2434SOL    HW1 7358   3.810   2.105   4.897
 2434SOL    HW2 7359   3.743   1.974   4.931
 2435SOL     OW 7360   2.970   3.212   1.545
 2435SOL    HW1 7361   2.900   3.156   1.580
 2435SOL    HW2 7362   2.987   3.178   1.457
 2436SOL     OW 7363   2.750   0.928   3.762
 2436SOL    HW1 7364   2.696   1.006   3.749
 2436SOL    HW2 7365   2.828   0.961   3.808
 2437SOL     OW 7366   0.126   4.377   3.422
 2437SOL    HW1 7367   0.073   4.326   3.362
 2437SOL    HW2 7368   0.134   4.322   3.500
 2438SOL     OW 7369   0.359   4.668   2.850
 2438SOL    HW1 7370   0.275   4.661   2.805
 2438SOL    HW2 7371   0.394   4.579   2.850
 2439SOL     OW 7372   0.904   2.168   3.424
 2439SOL    HW1 7373   0.918   2.246   3.477
 2439SOL    HW2 7374   0.914   2.095   3.485
 2440SOL     OW 7375   3.702   2.312   0.128
 2440SOL    HW1 7376   3.693   2.401   0.094
 2440SOL    HW2 7377   3.617   2.272   0.112
 2441SOL     OW 7378   2.885   1.941   2.044
 2441SOL    HW1 7379   2.898   1.876   2.112
 2441SOL    HW2 7380   2.954   1.923   1.980
 2442SOL     OW 7381   4.851   4.406   3.639
 2442SOL    HW1 7382   4.768   4.385   3.683
 2442SOL    HW2 7383   4.914   4.343   3.673
 2443SOL     OW 7384   0.210   2.740   2.635
 2443SOL    HW1 7385   0.164   2.673   2.584
 2443SOL    HW2 7386   0.248   2.799   2.570
 2444SOL     OW 7387   3.176   3.922   0.520
 2444SOL    HW1 7388   3.131   3.959   0.595
 2444SOL    HW2 7389   3.249   3.982   0.503
 2445SOL     OW 7390   4.077   1.439   3.939
 2445SOL    HW1 7391   4.007   1.405   3.994
 2445SOL    HW2 7392   4.119   1.506   3.992
 2446SOL     OW 7393   0.793   1.890   2.902
 2446SOL    HW1 7394   0.875   1.907   2.949
 2446SOL    HW2 7395   0.782   1.795   2.907
 2447SOL     OW 7396   2.526   1.735   2.597
 2447SOL    HW1 7397   2.509   1.766   2.686
 2447SOL    HW2 7398   2.467   1.660   2.587
 2448SOL     OW 7399   1.579   3.854   2.415
 2448SOL    HW1 7400   1.620   3.940   2.411
 2448SOL    HW2 7401   1.531   3.855   2.498
 2449SOL     OW 7402   0.613   0.886   2.840
 2449SOL    HW1 7403   0.518   0.893   2.848
 2449SOL    HW2 7404   0.633   0.924   2.754
 2450SOL     OW 7405   3.613   3.221   0.704
 2450SOL    HW1 7406   3.540   3.257   0.754
 2450SOL    HW2 7407   3.588   3.232   0.613
 2451SOL     OW 7408   0.723   0.378   4.136
 2451SOL    HW1 7409   0.646   0.332   4.170
 2451SOL    HW2 7410   0.743   0.443   4.203
 2452SOL     OW 7411   2.374   0.786   2.627
 2452SOL    HW1 7412   2.293   0.770   2.580
 2452SOL    HW2 7413   2.347   0.798   2.719
 2453SOL     OW 7414   0.922   0.111   1.537
 2453SOL    HW1 7415   0.991   0.064   1.491
 2453SOL    HW2 7416   0.967   0.170   1.596
 2454SOL     OW 7417   2.583   4.037   1.125
 2454SOL    HW1 7418   2.493   4.069   1.114
 2454SOL    HW2 7419   2.597   4.035   1.219
 2455SOL     OW 7420   4.220   4.353   1.281
 2455SOL    HW1 7421   4.200   4.447   1.284
 2455SOL    HW2 7422   4.143   4.311   1.318
 2456SOL     OW 7423   1.194   0.651   0.490
 2456SOL    HW1 7424   1.227   0.566   0.461
 2456SOL    HW2 7425   1.245   0.715   0.440
 2457SOL     OW 7426   4.295   3.146   2.235
 2457SOL    HW1 7427   4.278   3.173   2.144
 2457SOL    HW2 7428   4.374   3.093   2.229
 2458SOL     OW 7429   0.931   0.621   2.888
 2458SOL    HW1 7430   0.909   0.544   2.835
 2458SOL    HW2 7431   0.882   0.608   2.970
 2459SOL     OW 7432   0.315   1.132   1.461
 2459SOL    HW1 7433   0.400   1.087   1.464
 2459SOL    HW2 7434   0.251   1.062   1.476
 2460SOL     OW 7435   4.723   4.310   4.707
 2460SOL    HW1 7436   4.627   4.305   4.700
 2460SOL    HW2 7437   4.742   4.404   4.709
 2461SOL     OW 7438   2.206   1.851   3.677
 2461SOL    HW1 7439   2.145   1.777   3.680
 2461SOL    HW2 7440   2.163   1.915   3.621
 2462SOL     OW 7441   2.186   0.256   2.933
 2462SOL    HW1 7442   2.220   0.205   2.860
 2462SOL    HW2 7443   2.091   0.245   2.927
 2463SOL     OW 7444   2.769   0.397   0.748
 2463SOL    HW1 7445   2.846   0.345   0.771
 2463SOL    HW2 7446   2.795   0.487   0.765
 2464SOL     OW 7447   1.934   4.781   4.381
 2464SOL    HW1 7448   1.879   4.855   4.407
 2464SOL    HW2 7449   1.887   4.740   4.309
 2465SOL     OW 7450   4.287   2.525   4.322
 2465SOL    HW1 7451   4.363   2.582   4.313
 2465SOL    HW2 7452   4.264   2.501   4.232
 2466SOL     OW 7453   3.957   0.111   4.715
 2466SOL    HW1 7454   3.944   0.103   4.810
 2466SOL    HW2 7455   3.989   0.200   4.703
 2467SOL     OW 7456   4.599   0.579   2.452
 2467SOL    HW1 7457   4.549   0.650   2.413
 2467SOL    HW2 7458   4.553   0.500   2.424
 2468SOL     OW 7459   0.427   4.316   2.422
 2468SOL    HW1 7460   0.352   4.298   2.479
 2468SOL    HW2 7461   0.401   4.282   2.336
 2469SOL     OW 7462   3.216   4.857   2.811
 2469SOL    HW1 7463   3.150   4.870   2.879
 2469SOL    HW2 7464   3.285   4.919   2.831
 2470SOL     OW 7465   1.557   3.253   0.982
 2470SOL    HW1 7466   1.601   3.335   0.960
 2470SOL    HW2 7467   1.627   3.189   0.992
 2471SOL     OW 7468   0.868   0.145   2.033
 2471SOL    HW1 7469   0.948   0.186   2.000
 2471SOL    HW2 7470   0.816   0.128   1.955
 2472SOL     OW 7471   0.587   0.014   4.271
 2472SOL    HW1 7472   0.548   0.101   4.259
 2472SOL    HW2 7473   0.546   4.927   4.202
 2473SOL     OW 7474   1.867   2.954   3.498
 2473SOL    HW1 7475   1.849   2.984   3.587
 2473SOL    HW2 7476   1.794   2.895   3.477
 2474SOL     OW 7477   1.375   1.518   0.043
 2474SOL    HW1 7478   1.281   1.533   0.037
 2474SOL    HW2 7479   1.384   1.425   0.061
 2475SOL     OW 7480   3.663   0.193   3.313
 2475SOL    HW1 7481   3.665   0.110   3.360
 2475SOL    HW2 7482   3.677   0.259   3.380
 2476SOL     OW 7483   2.010   0.844   1.995
 2476SOL    HW1 7484   1.955   0.834   1.917
 2476SOL    HW2 7485   2.087   0.790   1.976
 2477SOL     OW 7486   1.722   0.201   4.486
 2477SOL    HW1 7487   1.643   0.248   4.513
 2477SOL    HW2 7488   1.727   0.125   4.544
 2478SOL     OW 7489   0.990   2.431   3.263
 2478SOL    HW1 7490   1.074   2.476   3.257
 2478SOL    HW2 7491   0.945   2.472   3.337
 2479SOL     OW 7492   4.437   4.328   4.149
 2479SOL    HW1 7493   4.456   4.238   4.123
 2479SOL    HW2 7494   4.495   4.381   4.095
 2480SOL     OW 7495   0.068   0.569   2.624
 2480SOL    HW1 7496   0.034   0.585   2.712
 2480SOL    HW2 7497   4.962   0.591   2.566
 2481SOL     OW 7498   1.707   1.009   2.535
 2481SOL    HW1 7499   1.793   1.041   2.561
 2481SOL    HW2 7500   1.649   1.084   2.546
 2482SOL     OW 7501   2.650   1.937   0.770
 2482SOL    HW1 7502   2.643   2.021   0.816
 2482SOL    HW2 7503   2.741   1.909   0.785
 2483SOL     OW 7504   1.063   0.035   4.177
 2483SOL    HW1 7505   1.021   0.115   4.147
 2483SOL    HW2 7506   0.991   4.947   4.209
 2484SOL     OW 7507   1.125   0.919   2.176
 2484SOL    HW1 7508   1.216   0.892   2.165
 2484SOL    HW2 7509   1.094   0.868   2.251
 2485SOL     OW 7510   2.390   2.713   0.845
 2485SOL    HW1 7511   2.312   2.768   0.836
 2485SOL    HW2 7512   2.436   2.723   0.762
 2486SOL     OW 7513   0.915   0.842   1.199
 2486SOL    HW1 7514   0.872   0.816   1.118
 2486SOL    HW2 7515   0.985   0.902   1.171
 2487SOL     OW 7516   4.921   3.363   3.724
 2487SOL    HW1 7517   4.859   3.425   3.763
 2487SOL    HW2 7518   0.020   3.418   3.682
 2488SOL     OW 7519   0.201   2.227   3.755
 2488SOL    HW1 7520   0.276   2.194   3.706
 2488SOL    HW2 7521   0.125   2.202   3.703
 2489SOL     OW 7522   4.148   2.153   4.420
 2489SOL    HW1 7523   4.202   2.170   4.342
 2489SOL    HW2 7524   4.078   2.096   4.388
 2490SOL     OW 7525   1.897   4.278   3.548
 2490SOL    HW1 7526   1.868   4.346   3.609
 2490SOL    HW2 7527   1.886   4.197   3.598
 2491SOL     OW 7528   1.490   1.150   3.189
 2491SOL    HW1 7529   1.411   1.195   3.220
 2491SOL    HW2 7530   1.457   1.077   3.137
 2492SOL     OW 7531   1.887   3.796   1.499
 2492SOL    HW1 7532   1.923   3.866   1.554
 2492SOL    HW2 7533   1.796   3.820   1.485
 2493SOL     OW 7534   3.815   1.177   0.975
 2493SOL    HW1 7535   3.754   1.192   1.047
 2493SOL    HW2 7536   3.759   1.149   0.902
 2494SOL     OW 7537   4.518   0.701   1.041
 2494SOL    HW1 7538   4.452   0.725   1.106
 2494SOL    HW2 7539   4.601   0.705   1.088
 2495SOL     OW 7540   0.468   3.373   1.317
 2495SOL    HW1 7541   0.552   3.328   1.330
 2495SOL    HW2 7542   0.430   3.332   1.240
 2496SOL     OW 7543   3.008   4.674   0.563
 2496SOL    HW1 7544   2.914   4.661   0.575
 2496SOL    HW2 7545   3.045   4.658   0.649
 2497SOL     OW 7546   2.000   1.339   1.929
 2497SOL    HW1 7547   1.988   1.416   1.984
 2497SOL    HW2 7548   1.943   1.273   1.967
 2498SOL     OW 7549   1.763   0.862   4.082
 2498SOL    HW1 7550   1.770   0.777   4.125
 2498SOL    HW2 7551   1.823   0.919   4.131
 2499SOL     OW 7552   2.127   0.464   3.155
 2499SOL    HW1 7553   2.167   0.379   3.138
 2499SOL    HW2 7554   2.122   0.470   3.250
 2500SOL     OW 7555   2.298   4.523   3.488
 2500SOL    HW1 7556   2.282   4.442   3.538
 2500SOL    HW2 7557   2.328   4.492   3.402
 2501SOL     OW 7558   3.974   3.828   3.784
 2501SOL    HW1 7559   3.884   3.859   3.781
 2501SOL    HW2 7560   4.009   3.863   3.866
 2502SOL     OW 7561   2.139   1.580   0.591
 2502SOL    HW1 7562   2.223   1.552   0.553
 2502SOL    HW2 7563   2.089   1.612   0.516
 2503SOL     OW 7564   0.515   4.697   0.053
 2503SOL    HW1 7565   0.561   4.613   0.061
 2503SOL    HW2 7566   0.539   4.744   0.133
 2504SOL     OW 7567   0.876   2.582   2.316
 2504SOL    HW1 7568   0.869   2.495   2.356
 2504SOL    HW2 7569   0.897   2.565   2.224
 2505SOL     OW 7570   1.489   3.830   2.717
 2505SOL    HW1 7571   1.527   3.844   2.804
 2505SOL    HW2 7572   1.514   3.908   2.668
 2506SOL     OW 7573   4.202   3.310   1.566
 2506SOL    HW1 7574   4.147   3.339   1.493
 2506SOL    HW2 7575   4.202   3.215   1.560
 2507SOL     OW 7576   3.406   1.168   4.693
 2507SOL    HW1 7577   3.501   1.173   4.677
 2507SOL    HW2 7578   3.392   1.225   4.768
 2508SOL     OW 7579   2.781   2.578   1.543
 2508SOL    HW1 7580   2.827   2.659   1.565
 2508SOL    HW2 7581   2.783   2.527   1.623
 2509SOL     OW 7582   1.810   1.141   1.612
 2509SOL    HW1 7583   1.821   1.191   1.531
 2509SOL    HW2 7584   1.900   1.127   1.643
 2510SOL     OW 7585   0.970   0.340   3.046
 2510SOL    HW1 7586   0.901   0.350   2.981
 2510SOL    HW2 7587   0.974   0.246   3.063
 2511SOL     OW 7588   1.123   1.474   3.320
 2511SOL    HW1 7589   1.097   1.547   3.264
 2511SOL    HW2 7590   1.214   1.494   3.344
 2512SOL     OW 7591   3.724   1.088   3.455
 2512SOL    HW1 7592   3.776   1.168   3.448
 2512SOL    HW2 7593   3.641   1.118   3.493
 2513SOL     OW 7594   2.694   0.770   1.206
 2513SOL    HW1 7595   2.754   0.833   1.245
 2513SOL    HW2 7596   2.746   0.689   1.199
 2514SOL     OW 7597   4.793   2.793   3.606
 2514SOL    HW1 7598   4.736   2.836   3.543
 2514SOL    HW2 7599   4.737   2.776   3.682
 2515SOL     OW 7600   0.906   1.142   1.076
 2515SOL    HW1 7601   0.976   1.115   1.016
 2515SOL    HW2 7602   0.830   1.157   1.019
 2516SOL     OW 7603   4.515   1.567   4.653
 2516SOL    HW1 7604   4.493   1.656   4.681
 2516SOL    HW2 7605   4.533   1.574   4.559
 2517SOL     OW 7606   1.160   3.443   4.233
 2517SOL    HW1 7607   1.110   3.388   4.294
 2517SOL    HW2 7608   1.094   3.493   4.185
 2518SOL     OW 7609   4.060   0.556   3.733
 2518SOL    HW1 7610   3.980   0.573   3.682
 2518SOL    HW2 7611   4.064   0.629   3.795
 2519SOL     OW 7612   2.959   1.913   4.499
 2519SOL    HW1 7613   2.984   1.929   4.590
 2519SOL    HW2 7614   2.918   1.995   4.472
 2520SOL     OW 7615   4.928   4.187   3.264
 2520SOL    HW1 7616   4.844   4.170   3.305
 2520SOL    HW2 7617   4.923   4.144   3.179
 2521SOL     OW 7618   1.452   0.048   4.387
 2521SOL    HW1 7619   1.459   0.085   4.475
 2521SOL    HW2 7620   1.420   0.120   4.333
 2522SOL     OW 7621   0.746   2.322   2.011
 2522SOL    HW1 7622   0.675   2.358   1.957
 2522SOL    HW2 7623   0.816   2.388   2.005
 2523SOL     OW 7624   1.001   2.214   3.804
 2523SOL    HW1 7625   1.051   2.221   3.885
 2523SOL    HW2 7626   0.943   2.290   3.805
 2524SOL     OW 7627   0.679   3.601   3.431
 2524SOL    HW1 7628   0.763   3.580   3.471
 2524SOL    HW2 7629   0.693   3.587   3.338
 2525SOL     OW 7630   1.698   4.899   4.241
 2525SOL    HW1 7631   1.621   4.931   4.287
 2525SOL    HW2 7632   1.668   4.883   4.151
 2526SOL     OW 7633   3.912   2.986   2.078
 2526SOL    HW1 7634   3.840   3.040   2.110
 2526SOL    HW2 7635   3.958   3.042   2.016
 2527SOL     OW 7636   2.800   2.162   0.815
 2527SOL    HW1 7637   2.750   2.219   0.874
 2527SOL    HW2 7638   2.805   2.212   0.733
 2528SOL     OW 7639   0.252   3.352   0.622
 2528SOL    HW1 7640   0.205   3.407   0.559
 2528SOL    HW2 7641   0.315   3.304   0.569
 2529SOL     OW 7642   1.230   3.279   4.008
 2529SOL    HW1 7643   1.248   3.339   3.935
 2529SOL    HW2 7644   1.194   3.334   4.077
 2530SOL     OW 7645   2.555   0.408   0.566
 2530SOL    HW1 7646   2.509   0.329   0.594
 2530SOL    HW2 7647   2.635   0.409   0.618
 2531SOL     OW 7648   0.133   3.867   3.166
 2531SOL    HW1 7649   0.076   3.918   3.109
 2531SOL    HW2 7650   0.219   3.869   3.123
 2532SOL     OW 7651   4.124   4.863   3.245
 2532SOL    HW1 7652   4.039   4.898   3.272
 2532SOL    HW2 7653   4.184   4.891   3.313
 2533SOL     OW 7654   4.222   0.946   2.394
 2533SOL    HW1 7655   4.172   0.913   2.319
 2533SOL    HW2 7656   4.157   0.961   2.462
 2534SOL     OW 7657   4.188   1.738   3.497
 2534SOL    HW1 7658   4.252   1.694   3.441
 2534SOL    HW2 7659   4.160   1.670   3.559
 2535SOL     OW 7660   1.024   0.215   3.353
 2535SOL    HW1 7661   1.086   0.278   3.315
 2535SOL    HW2 7662   1.019   0.241   3.445
 2536SOL     OW 7663   3.031   4.253   1.556
 2536SOL    HW1 7664   3.054   4.167   1.521
 2536SOL    HW2 7665   2.974   4.292   1.489
 2537SOL     OW 7666   3.622   3.229   3.707
 2537SOL    HW1 7667   3.660   3.316   3.717
 2537SOL    HW2 7668   3.667   3.175   3.771
 2538SOL     OW 7669   1.946   0.944   2.718
 2538SOL    HW1 7670   2.037   0.940   2.747
 2538SOL    HW2 7671   1.941   1.025   2.667
 2539SOL     OW 7672   3.196   2.840   2.697
 2539SOL    HW1 7673   3.231   2.870   2.781
 2539SOL    HW2 7674   3.166   2.920   2.654
 2540SOL     OW 7675   2.324   3.600   0.310
 2540SOL    HW1 7676   2.308   3.510   0.282
 2540SOL    HW2 7677   2.419   3.607   0.317
 2541SOL     OW 7678   4.068   3.092   4.751
 2541SOL    HW1 7679   4.120   3.103   4.671
 2541SOL    HW2 7680   4.131   3.097   4.822
 2542SOL     OW 7681   4.369   1.180   4.860
 2542SOL    HW1 7682   4.395   1.209   4.773
 2542SOL    HW2 7683   4.446   1.136   4.896
 2543SOL     OW 7684   3.945   2.300   0.878
 2543SOL    HW1 7685   3.920   2.268   0.791
 2543SOL    HW2 7686   3.864   2.334   0.915
 2544SOL     OW 7687   0.186   1.281   2.814
 2544SOL    HW1 7688   0.156   1.349   2.753
 2544SOL    HW2 7689   0.197   1.204   2.759
 2545SOL     OW 7690   3.748   3.287   4.568
 2545SOL    HW1 7691   3.691   3.361   4.585
 2545SOL    HW2 7692   3.690   3.210   4.570
 2546SOL     OW 7693   4.678   2.095   3.517
 2546SOL    HW1 7694   4.603   2.122   3.463
 2546SOL    HW2 7695   4.639   2.049   3.591
 2547SOL     OW 7696   1.002   0.663   2.545
 2547SOL    HW1 7697   0.973   0.586   2.593
 2547SOL    HW2 7698   1.069   0.703   2.600
 2548SOL     OW 7699   4.630   4.365   3.789
 2548SOL    HW1 7700   4.615   4.437   3.850
 2548SOL    HW2 7701   4.557   4.305   3.803
 2549SOL     OW 7702   1.167   4.270   3.238
 2549SOL    HW1 7703   1.228   4.317   3.181
 2549SOL    HW2 7704   1.208   4.275   3.325
 2550SOL     OW 7705   1.694   4.112   1.714
 2550SOL    HW1 7706   1.753   4.177   1.752
 2550SOL    HW2 7707   1.652   4.071   1.790
 2551SOL     OW 7708   0.756   3.308   0.269
 2551SOL    HW1 7709   0.748   3.324   0.174
 2551SOL    HW2 7710   0.809   3.230   0.276
 2552SOL     OW 7711   1.118   3.732   1.786
 2552SOL    HW1 7712   1.102   3.767   1.874
 2552SOL    HW2 7713   1.036   3.745   1.739
 2553SOL     OW 7714   2.793   1.928   2.807
 2553SOL    HW1 7715   2.881   1.924   2.845
 2553SOL    HW2 7716   2.736   1.896   2.877
 2554SOL     OW 7717   4.083   1.936   2.959
 2554SOL    HW1 7718   4.063   1.844   2.945
 2554SOL    HW2 7719   4.043   1.980   2.884
 2555SOL     OW 7720   4.711   0.732   1.227
 2555SOL    HW1 7721   4.731   0.725   1.321
 2555SOL    HW2 7722   4.792   0.705   1.183
 2556SOL     OW 7723   3.734   1.799   2.540
 2556SOL    HW1 7724   3.785   1.743   2.600
 2556SOL    HW2 7725   3.700   1.869   2.597
 2557SOL     OW 7726   1.071   3.636   4.415
 2557SOL    HW1 7727   1.084   3.635   4.509
 2557SOL    HW2 7728   1.028   3.552   4.396
 2558SOL     OW 7729   1.699   0.260   0.592
 2558SOL    HW1 7730   1.658   0.256   0.679
 2558SOL    HW2 7731   1.731   0.349   0.585
 2559SOL     OW 7732   3.186   2.882   3.226
 2559SOL    HW1 7733   3.235   2.909   3.149
 2559SOL    HW2 7734   3.103   2.849   3.192
 2560SOL     OW 7735   1.274   2.107   1.582
 2560SOL    HW1 7736   1.311   2.195   1.579
 2560SOL    HW2 7737   1.349   2.049   1.569
 2561SOL     OW 7738   2.088   0.313   1.446
 2561SOL    HW1 7739   2.060   0.222   1.438
 2561SOL    HW2 7740   2.183   0.311   1.438
 2562SOL     OW 7741   4.544   3.581   0.244
 2562SOL    HW1 7742   4.524   3.601   0.335
 2562SOL    HW2 7743   4.563   3.666   0.204
 2563SOL     OW 7744   2.985   0.478   1.663
 2563SOL    HW1 7745   3.015   0.419   1.594
 2563SOL    HW2 7746   3.049   0.549   1.663
 2564SOL     OW 7747   4.627   4.291   0.940
 2564SOL    HW1 7748   4.592   4.378   0.920
 2564SOL    HW2 7749   4.654   4.256   0.855
 2565SOL     OW 7750   0.558   1.721   1.144
 2565SOL    HW1 7751   0.555   1.710   1.049
 2565SOL    HW2 7752   0.651   1.725   1.165
 2566SOL     OW 7753   2.393   1.110   3.415
 2566SOL    HW1 7754   2.326   1.047   3.388
 2566SOL    HW2 7755   2.353   1.157   3.488
 2567SOL     OW 7756   4.538   3.899   3.283
 2567SOL    HW1 7757   4.455   3.930   3.248
 2567SOL    HW2 7758   4.518   3.870   3.372
 2568SOL     OW 7759   3.658   1.652   3.558
 2568SOL    HW1 7760   3.691   1.689   3.476
 2568SOL    HW2 7761   3.615   1.725   3.603
 2569SOL     OW 7762   1.131   4.086   4.546
 2569SOL    HW1 7763   1.115   4.172   4.584
 2569SOL    HW2 7764   1.078   4.026   4.599
 2570SOL     OW 7765   3.026   3.060   4.501
 2570SOL    HW1 7766   2.993   3.038   4.589
 2570SOL    HW2 7767   2.963   3.123   4.467
 2571SOL     OW 7768   2.182   1.180   4.831
 2571SOL    HW1 7769   2.130   1.136   4.764
 2571SOL    HW2 7770   2.208   1.110   4.891
 2572SOL     OW 7771   1.581   4.965   3.776
 2572SOL    HW1 7772   1.538   0.070   3.729
 2572SOL    HW2 7773   1.664   4.952   3.731
 2573SOL     OW 7774   4.139   2.137   0.944
 2573SOL    HW1 7775   4.060   2.191   0.944
 2573SOL    HW2 7776   4.109   2.050   0.969
 2574SOL     OW 7777   2.336   4.897   3.026
 2574SOL    HW1 7778   2.325   4.886   2.932
 2574SOL    HW2 7779   2.266   4.845   3.065
 2575SOL     OW 7780   0.549   3.945   3.265
 2575SOL    HW1 7781   0.613   3.930   3.334
 2575SOL    HW2 7782   0.471   3.896   3.293
 2576SOL     OW 7783   4.903   4.543   0.048
 2576SOL    HW1 7784   4.824   4.541   0.102
 2576SOL    HW2 7785   4.937   4.454   0.051
 2577SOL     OW 7786   2.327   2.788   0.365
 2577SOL    HW1 7787   2.283   2.873   0.372
 2577SOL    HW2 7788   2.379   2.795   0.285
 2578SOL     OW 7789   4.224   1.242   0.909
 2578SOL    HW1 7790   4.238   1.168   0.850
 2578SOL    HW2 7791   4.275   1.220   0.987
 2579SOL     OW 7792   2.252   4.524   4.220
 2579SOL    HW1 7793   2.343   4.537   4.191
 2579SOL    HW2 7794   2.222   4.611   4.245
 2580SOL     OW 7795   1.806   4.262   2.241
 2580SOL    HW1 7796   1.730   4.311   2.209
 2580SOL    HW2 7797   1.814   4.188   2.182
 2581SOL     OW 7798   3.455   3.834   2.130
 2581SOL    HW1 7799   3.487   3.891   2.060
 2581SOL    HW2 7800   3.450   3.891   2.207
 2582SOL     OW 7801   2.283   4.078   2.629
 2582SOL    HW1 7802   2.357   4.018   2.621
 2582SOL    HW2 7803   2.239   4.052   2.709
 2583SOL     OW 7804   3.290   3.741   4.209
 2583SOL    HW1 7805   3.246   3.780   4.285
 2583SOL    HW2 7806   3.375   3.784   4.205
 2584SOL     OW 7807   1.304   3.657   0.519
 2584SOL    HW1 7808   1.269   3.742   0.494
 2584SOL    HW2 7809   1.251   3.629   0.593
 2585SOL     OW 7810   0.210   2.232   3.098
 2585SOL    HW1 7811   0.234   2.325   3.106
 2585SOL    HW2 7812   0.186   2.206   3.187
 2586SOL     OW 7813   2.978   0.193   1.060
 2586SOL    HW1 7814   2.886   0.215   1.049
 2586SOL    HW2 7815   3.016   0.202   0.972
 2587SOL     OW 7816   1.698   1.020   3.650
 2587SOL    HW1 7817   1.643   0.960   3.701
 2587SOL    HW2 7818   1.687   0.993   3.559
 2588SOL     OW 7819   0.525   2.695   1.874
 2588SOL    HW1 7820   0.543   2.668   1.964
 2588SOL    HW2 7821   0.494   2.785   1.882
 2589SOL     OW 7822   2.152   4.791   1.231
 2589SOL    HW1 7823   2.211   4.791   1.306
 2589SOL    HW2 7824   2.155   4.701   1.198
 2590SOL     OW 7825   2.158   2.007   3.226
 2590SOL    HW1 7826   2.193   2.030   3.141
 2590SOL    HW2 7827   2.103   1.930   3.210
 2591SOL     OW 7828   4.683   1.700   2.100
 2591SOL    HW1 7829   4.695   1.627   2.038
 2591SOL    HW2 7830   4.592   1.690   2.129
 2592SOL     OW 7831   1.821   1.965   4.486
 2592SOL    HW1 7832   1.828   2.046   4.537
 2592SOL    HW2 7833   1.728   1.959   4.465
 2593SOL     OW 7834   2.194   3.760   4.053
 2593SOL    HW1 7835   2.283   3.774   4.085
 2593SOL    HW2 7836   2.144   3.835   4.084
 2594SOL     OW 7837   0.626   0.219   0.308
 2594SOL    HW1 7838   0.552   0.164   0.281
 2594SOL    HW2 7839   0.593   0.308   0.299
 2595SOL     OW 7840   1.731   1.306   2.346
 2595SOL    HW1 7841   1.711   1.352   2.264
 2595SOL    HW2 7842   1.816   1.340   2.373
 2596SOL     OW 7843   0.468   1.108   3.756
 2596SOL    HW1 7844   0.501   1.133   3.670
 2596SOL    HW2 7845   0.511   1.025   3.775
 2597SOL     OW 7846   0.300   3.526   2.855
 2597SOL    HW1 7847   0.366   3.586   2.888
 2597SOL    HW2 7848   0.239   3.581   2.807
 2598SOL     OW 7849   3.830   3.267   0.206
 2598SOL    HW1 7850   3.888   3.194   0.230
 2598SOL    HW2 7851   3.879   3.346   0.228
 2599SOL     OW 7852   4.484   1.299   1.270
 2599SOL    HW1 7853   4.572   1.270   1.243
 2599SOL    HW2 7854   4.491   1.309   1.365
 2600SOL     OW 7855   3.503   4.180   3.531
 2600SOL    HW1 7856   3.428   4.204   3.477
 2600SOL    HW2 7857   3.579   4.189   3.473
 2601SOL     OW 7858   3.179   1.182   2.161
 2601SOL    HW1 7859   3.147   1.203   2.249
 2601SOL    HW2 7860   3.102   1.193   2.104
 2602SOL     OW 7861   2.252   2.991   3.584
 2602SOL    HW1 7862   2.162   3.004   3.615
 2602SOL    HW2 7863   2.305   2.993   3.664
 2603SOL     OW 7864   2.209   1.978   0.661
 2603SOL    HW1 7865   2.193   1.915   0.731
 2603SOL    HW2 7866   2.130   1.975   0.607
 2604SOL     OW 7867   0.395   3.953   1.333
 2604SOL    HW1 7868   0.451   3.987   1.263
 2604SOL    HW2 7869   0.398   3.858   1.322
 2605SOL     OW 7870   1.167   4.578   4.290
 2605SOL    HW1 7871   1.193   4.539   4.373
 2605SOL    HW2 7872   1.172   4.673   4.305
 2606SOL     OW 7873   3.349   4.014   3.903
 2606SOL    HW1 7874   3.319   4.038   3.991
 2606SOL    HW2 7875   3.410   4.084   3.879
 2607SOL     OW 7876   2.418   2.760   2.846
 2607SOL    HW1 7877   2.340   2.739   2.897
 2607SOL    HW2 7878   2.430   2.684   2.788
 2608SOL     OW 7879   4.947   2.961   2.368
 2608SOL    HW1 7880   4.938   2.888   2.306
 2608SOL    HW2 7881   4.913   3.037   2.322
 2609SOL     OW 7882   0.581   3.022   3.351
 2609SOL    HW1 7883   0.584   3.015   3.256
 2609SOL    HW2 7884   0.645   2.956   3.381
 2610SOL     OW 7885   4.101   0.782   2.015
 2610SOL    HW1 7886   4.157   0.706   2.035
 2610SOL    HW2 7887   4.028   0.745   1.966
 2611SOL     OW 7888   3.607   3.552   0.973
 2611SOL    HW1 7889   3.648   3.628   1.014
 2611SOL    HW2 7890   3.664   3.478   0.995
 2612SOL     OW 7891   2.709   2.474   2.946
 2612SOL    HW1 7892   2.732   2.533   2.874
 2612SOL    HW2 7893   2.638   2.420   2.911
 2613SOL     OW 7894   1.613   1.699   3.634
 2613SOL    HW1 7895   1.697   1.741   3.656
 2613SOL    HW2 7896   1.573   1.681   3.719
 2614SOL     OW 7897   4.448   2.900   1.840
 2614SOL    HW1 7898   4.485   2.894   1.752
 2614SOL    HW2 7899   4.391   2.977   1.837
 2615SOL     OW 7900   0.109   2.553   2.981
 2615SOL    HW1 7901   0.170   2.549   2.907
 2615SOL    HW2 7902   0.149   2.618   3.040
 2616SOL     OW 7903   4.743   2.487   0.033
 2616SOL    HW1 7904   4.672   2.500   4.937
 2616SOL    HW2 7905   4.749   2.570   0.080
 2617SOL     OW 7906   3.896   0.774   1.561
 2617SOL    HW1 7907   3.816   0.795   1.609
 2617SOL    HW2 7908   3.966   0.814   1.613
 2618SOL     OW 7909   1.348   2.510   2.391
 2618SOL    HW1 7910   1.351   2.603   2.410
 2618SOL    HW2 7911   1.259   2.483   2.412
 2619SOL     OW 7912   2.486   2.884   4.643
 2619SOL    HW1 7913   2.509   2.792   4.628
 2619SOL    HW2 7914   2.391   2.887   4.635
 2620SOL     OW 7915   3.521   2.662   1.260
 2620SOL    HW1 7916   3.575   2.594   1.300
 2620SOL    HW2 7917   3.540   2.741   1.311
 2621SOL     OW 7918   0.905   3.829   1.629
 2621SOL    HW1 7919   0.831   3.788   1.584
 2621SOL    HW2 7920   0.918   3.912   1.583
 2622SOL     OW 7921   1.349   0.925   1.096
 2622SOL    HW1 7922   1.328   0.999   1.151
 2622SOL    HW2 7923   1.443   0.913   1.107
 2623SOL     OW 7924   1.872   3.226   3.989
 2623SOL    HW1 7925   1.789   3.206   3.946
 2623SOL    HW2 7926   1.883   3.320   3.978
 2624SOL     OW 7927   2.005   2.962   3.027
 2624SOL    HW1 7928   1.987   3.053   3.006
 2624SOL    HW2 7929   2.073   2.936   2.964
 2625SOL     OW 7930   0.277   4.602   3.590
 2625SOL    HW1 7931   0.239   4.567   3.509
 2625SOL    HW2 7932   0.348   4.658   3.561
 2626SOL     OW 7933   1.760   4.448   1.362
 2626SOL    HW1 7934   1.797   4.497   1.436
 2626SOL    HW2 7935   1.732   4.365   1.400
 2627SOL     OW 7936   1.335   2.294   0.408
 2627SOL    HW1 7937   1.320   2.209   0.366
 2627SOL    HW2 7938   1.423   2.287   0.445
 2628SOL     OW 7939   2.923   1.510   3.835
 2628SOL    HW1 7940   2.858   1.578   3.818
 2628SOL    HW2 7941   2.991   1.553   3.886
 2629SOL     OW 7942   0.973   3.953   2.921
 2629SOL    HW1 7943   1.014   3.965   2.836
 2629SOL    HW2 7944   1.040   3.908   2.973
 2630SOL     OW 7945   0.225   0.855   1.501
 2630SOL    HW1 7946   0.259   0.770   1.471
 2630SOL    HW2 7947   0.197   0.839   1.591
 2631SOL     OW 7948   1.852   0.304   4.877
 2631SOL    HW1 7949   1.899   0.293   4.794
 2631SOL    HW2 7950   1.844   0.215   4.912
 2632SOL     OW 7951   4.336   4.079   2.962
 2632SOL    HW1 7952   4.350   3.989   2.932
 2632SOL    HW2 7953   4.419   4.104   3.003
 2633SOL     OW 7954   4.204   4.693   2.388
 2633SOL    HW1 7955   4.203   4.643   2.306
 2633SOL    HW2 7956   4.189   4.628   2.456
 2634SOL     OW 7957   2.847   4.253   0.769
 2634SOL    HW1 7958   2.798   4.331   0.796
 2634SOL    HW2 7959   2.835   4.249   0.674
 2635SOL     OW 7960   2.193   2.276   3.582
 2635SOL    HW1 7961   2.246   2.204   3.549
 2635SOL    HW2 7962   2.238   2.355   3.551
 2636SOL     OW 7963   2.291   3.443   1.699
 2636SOL    HW1 7964   2.242   3.452   1.780
 2636SOL    HW2 7965   2.269   3.356   1.666
 2637SOL     OW 7966   0.996   3.012   4.426
 2637SOL    HW1 7967   1.053   3.010   4.502
 2637SOL    HW2 7968   0.929   2.945   4.444
 2638SOL     OW 7969   0.069   3.101   0.604
 2638SOL    HW1 7970   0.163   3.082   0.601
 2638SOL    HW2 7971   0.064   3.196   0.617
 2639SOL     OW 7972   0.428   3.061   4.178
 2639SOL    HW1 7973   0.424   3.004   4.101
 2639SOL    HW2 7974   0.348   3.113   4.173
 2640SOL     OW 7975   4.718   0.545   0.490
 2640SOL    HW1 7976   4.796   0.586   0.454
 2640SOL    HW2 7977   4.724   0.454   0.463
 2641SOL     OW 7978   0.852   0.135   0.372
 2641SOL    HW1 7979   0.875   0.074   0.303
 2641SOL    HW2 7980   0.762   0.161   0.352
 2642SOL     OW 7981   0.676   0.083   3.370
 2642SOL    HW1 7982   0.683   0.170   3.409
 2642SOL    HW2 7983   0.635   0.029   3.438
 2643SOL     OW 7984   4.853   2.009   3.264
 2643SOL    HW1 7985   4.893   1.950   3.327
 2643SOL    HW2 7986   4.855   2.095   3.307
 2644SOL     OW 7987   0.202   1.789   3.729
 2644SOL    HW1 7988   0.265   1.729   3.769
 2644SOL    HW2 7989   0.142   1.812   3.800
 2645SOL     OW 7990   3.432   4.446   4.584
 2645SOL    HW1 7991   3.521   4.477   4.566
 2645SOL    HW2 7992   3.378   4.487   4.517
 2646SOL     OW 7993   4.784   3.338   3.095
 2646SOL    HW1 7994   4.837   3.403   3.049
 2646SOL    HW2 7995   4.838   3.311   3.169
 2647SOL     OW 7996   1.851   1.286   2.884
 2647SOL    HW1 7997   1.947   1.277   2.881
 2647SOL    HW2 7998   1.836   1.373   2.920
 2648SOL     OW 7999   0.078   2.947   1.217
 2648SOL    HW1 8000   0.053   2.971   1.306
 2648SOL    HW2 8001   0.007   2.981   1.162
 2649SOL     OW 8002   3.863   1.512   4.175
 2649SOL    HW1 8003   3.920   1.588   4.171
 2649SOL    HW2 8004   3.784   1.543   4.221
 2650SOL     OW 8005   2.946   1.805   2.280
 2650SOL    HW1 8006   2.998   1.751   2.340
 2650SOL    HW2 8007   2.862   1.816   2.325
 2651SOL     OW 8008   0.843   3.340   2.816
 2651SOL    HW1 8009   0.841   3.371   2.907
 2651SOL    HW2 8010   0.895   3.260   2.819
 2652SOL     OW 8011   1.105   0.312   2.252
 2652SOL    HW1 8012   1.018   0.348   2.274
 2652SOL    HW2 8013   1.166   0.378   2.285
 2653SOL     OW 8014   4.751   0.889   2.839
 2653SOL    HW1 8015   4.767   0.866   2.930
 2653SOL    HW2 8016   4.767   0.808   2.790
 2654SOL     OW 8017   2.243   4.891   2.386
 2654SOL    HW1 8018   2.203   0.009   2.363
 2654SOL    HW2 8019   2.179   4.850   2.444
 2655SOL     OW 8020   3.760   4.531   0.747
 2655SOL    HW1 8021   3.854   4.523   0.762
 2655SOL    HW2 8022   3.722   4.544   0.834
 2656SOL     OW 8023   1.375   0.073   2.522
 2656SOL    HW1 8024   1.321   0.146   2.552
 2656SOL    HW2 8025   1.449   0.114   2.477
 2657SOL     OW 8026   2.313   3.225   1.517
 2657SOL    HW1 8027   2.284   3.292   1.455
 2657SOL    HW2 8028   2.351   3.156   1.462
 2658SOL     OW 8029   0.895   3.468   1.584
 2658SOL    HW1 8030   0.816   3.516   1.557
 2658SOL    HW2 8031   0.953   3.473   1.508
 2659SOL     OW 8032   3.396   2.169   2.924
 2659SOL    HW1 8033   3.443   2.202   2.848
 2659SOL    HW2 8034   3.319   2.226   2.930
 2660SOL     OW 8035   4.236   2.961   4.059
 2660SOL    HW1 8036   4.250   3.048   4.096
 2660SOL    HW2 8037   4.225   2.976   3.965
 2661SOL     OW 8038   4.253   4.190   0.729
 2661SOL    HW1 8039   4.227   4.144   0.649
 2661SOL    HW2 8040   4.333   4.145   0.757
 2662SOL     OW 8041   4.097   0.471   1.895
 2662SOL    HW1 8042   4.015   0.519   1.880
 2662SOL    HW2 8043   4.084   0.388   1.849
 2663SOL     OW 8044   0.047   4.821   1.328
 2663SOL    HW1 8045   0.043   4.835   1.233
 2663SOL    HW2 8046   4.947   4.754   1.344
 2664SOL     OW 8047   3.815   2.262   4.361
 2664SOL    HW1 8048   3.727   2.294   4.342
 2664SOL    HW2 8049   3.816   2.248   4.456
 2665SOL     OW 8050   3.470   1.478   3.471
 2665SOL    HW1 8051   3.502   1.548   3.529
 2665SOL    HW2 8052   3.470   1.517   3.384
 2666SOL     OW 8053   3.987   0.068   1.465
 2666SOL    HW1 8054   3.974   0.063   1.371
 2666SOL    HW2 8055   3.900   0.090   1.500
 2667SOL     OW 8056   1.741   4.190   0.392
 2667SOL    HW1 8057   1.814   4.131   0.413
 2667SOL    HW2 8058   1.732   4.244   0.470
 2668SOL     OW 8059   1.068   2.062   4.915
 2668SOL    HW1 8060   0.994   2.004   4.894
 2668SOL    HW2 8061   1.132   2.004   4.956
 2669SOL     OW 8062   0.125   0.471   0.338
 2669SOL    HW1 8063   0.050   0.529   0.352
 2669SOL    HW2 8064   0.171   0.469   0.422
 2670SOL     OW 8065   0.945   3.489   4.070
 2670SOL    HW1 8066   0.856   3.517   4.092
 2670SOL    HW2 8067   0.964   3.532   3.986
 2671SOL     OW 8068   2.669   4.375   2.179
 2671SOL    HW1 8069   2.680   4.281   2.166
 2671SOL    HW2 8070   2.756   4.412   2.164
 2672SOL     OW 8071   1.121   0.185   0.296
 2672SOL    HW1 8072   1.028   0.169   0.314
 2672SOL    HW2 8073   1.151   0.105   0.253
 2673SOL     OW 8074   3.108   4.251   0.421
 2673SOL    HW1 8075   3.182   4.214   0.373
 2673SOL    HW2 8076   3.038   4.188   0.408
 2674SOL     OW 8077   2.628   1.651   4.309
 2674SOL    HW1 8078   2.623   1.558   4.332
 2674SOL    HW2 8079   2.630   1.653   4.214
 2675SOL     OW 8080   1.284   3.843   4.869
 2675SOL    HW1 8081   1.357   3.816   4.925
 2675SOL    HW2 8082   1.310   3.815   4.781
 2676SOL     OW 8083   0.946   0.683   4.740
 2676SOL    HW1 8084   1.013   0.631   4.785
 2676SOL    HW2 8085   0.984   0.705   4.656
 2677SOL     OW 8086   2.398   3.713   3.725
 2677SOL    HW1 8087   2.343   3.735   3.650
 2677SOL    HW2 8088   2.336   3.684   3.792
 2678SOL     OW 8089   2.690   4.471   0.295
 2678SOL    HW1 8090   2.657   4.555   0.263
 2678SOL    HW2 8091   2.782   4.488   0.316
 2679SOL     OW 8092   1.395   2.880   0.146
 2679SOL    HW1 8093   1.451   2.915   0.215
 2679SOL    HW2 8094   1.369   2.794   0.178
 2680SOL     OW 8095   2.949   2.794   1.903
 2680SOL    HW1 8096   3.043   2.777   1.906
 2680SOL    HW2 8097   2.919   2.774   1.992
 2681SOL     OW 8098   0.999   0.288   3.805
 2681SOL    HW1 8099   0.997   0.372   3.759
 2681SOL    HW2 8100   0.994   0.223   3.735
 2682SOL     OW 8101   2.748   1.103   2.721
 2682SOL    HW1 8102   2.719   1.020   2.685
 2682SOL    HW2 8103   2.668   1.155   2.732
 2683SOL     OW 8104   3.392   1.184   2.540
 2683SOL    HW1 8105   3.451   1.258   2.552
 2683SOL    HW2 8106   3.419   1.145   2.457
 2684SOL     OW 8107   0.270   4.695   4.313
 2684SOL    HW1 8108   0.273   4.768   4.374
 2684SOL    HW2 8109   0.361   4.666   4.305
 2685SOL     OW 8110   4.661   4.578   1.468
 2685SOL    HW1 8111   4.600   4.549   1.536
 2685SOL    HW2 8112   4.719   4.640   1.512
 2686SOL     OW 8113   1.036   3.172   0.010
 2686SOL    HW1 8114   1.068   3.183   0.100
 2686SOL    HW2 8115   1.014   3.079   0.003
 2687SOL     OW 8116   2.566   3.689   0.433
 2687SOL    HW1 8117   2.571   3.785   0.434
 2687SOL    HW2 8118   2.556   3.665   0.525
 2688SOL     OW 8119   1.717   2.747   4.693
 2688SOL    HW1 8120   1.756   2.827   4.728
 2688SOL    HW2 8121   1.623   2.759   4.708
 2689SOL     OW 8122   2.829   3.816   4.489
 2689SOL    HW1 8123   2.851   3.844   4.399
 2689SOL    HW2 8124   2.913   3.792   4.527
 2690SOL     OW 8125   2.717   2.651   2.759
 2690SOL    HW1 8126   2.746   2.639   2.669
 2690SOL    HW2 8127   2.748   2.738   2.784
 2691SOL     OW 8128   3.033   2.718   4.859
 2691SOL    HW1 8129   2.940   2.696   4.849
 2691SOL    HW2 8130   3.059   2.751   4.773
 2692SOL     OW 8131   1.592   1.548   4.466
 2692SOL    HW1 8132   1.666   1.576   4.520
 2692SOL    HW2 8133   1.535   1.499   4.525
 2693SOL     OW 8134   0.999   0.975   4.429
 2693SOL    HW1 8135   0.996   1.013   4.341
 2693SOL    HW2 8136   0.911   0.990   4.465
 2694SOL     OW 8137   0.417   3.371   4.889
 2694SOL    HW1 8138   0.378   3.296   4.934
 2694SOL    HW2 8139   0.372   3.375   4.804
 2695SOL     OW 8140   0.350   4.402   1.957
 2695SOL    HW1 8141   0.385   4.465   2.020
 2695SOL    HW2 8142   0.258   4.427   1.947
 2696SOL     OW 8143   2.813   3.885   2.731
 2696SOL    HW1 8144   2.867   3.861   2.806
 2696SOL    HW2 8145   2.723   3.887   2.765
 2697SOL     OW 8146   1.141   1.091   3.596
 2697SOL    HW1 8147   1.154   1.014   3.652
 2697SOL    HW2 8148   1.107   1.158   3.655
 2698SOL     OW 8149   4.329   2.246   1.364
 2698SOL    HW1 8150   4.306   2.247   1.271
 2698SOL    HW2 8151   4.384   2.324   1.376
 2699SOL     OW 8152   0.640   3.204   0.926
 2699SOL    HW1 8153   0.638   3.273   0.860
 2699SOL    HW2 8154   0.722   3.217   0.973
 2700SOL     OW 8155   3.902   4.739   2.526
 2700SOL    HW1 8156   3.947   4.658   2.503
 2700SOL    HW2 8157   3.968   4.791   2.571
 2701SOL     OW 8158   0.815   0.521   0.165
 2701SOL    HW1 8159   0.759   0.575   0.109
 2701SOL    HW2 8160   0.898   0.568   0.168
 2702SOL     OW 8161   2.708   2.662   1.860
 2702SOL    HW1 8162   2.648   2.733   1.838
 2702SOL    HW2 8163   2.795   2.702   1.857
 2703SOL     OW 8164   0.498   3.736   2.981
 2703SOL    HW1 8165   0.541   3.741   3.067
 2703SOL    HW2 8166   0.556   3.681   2.929
 2704SOL     OW 8167   1.154   1.308   2.892
 2704SOL    HW1 8168   1.087   1.281   2.829
 2704SOL    HW2 8169   1.188   1.225   2.928
 2705SOL     OW 8170   0.951   0.245   4.082
 2705SOL    HW1 8171   0.885   0.312   4.099
 2705SOL    HW2 8172   0.981   0.263   3.993
 2706SOL     OW 8173   3.274   2.321   4.241
 2706SOL    HW1 8174   3.341   2.260   4.273
 2706SOL    HW2 8175   3.309   2.355   4.159
 2707SOL     OW 8176   0.365   1.086   4.006
 2707SOL    HW1 8177   0.381   1.104   3.913
 2707SOL    HW2 8178   0.309   1.008   4.006
 2708SOL     OW 8179   0.242   0.673   4.421
 2708SOL    HW1 8180   0.218   0.695   4.331
 2708SOL    HW2 8181   0.323   0.623   4.412
 2709SOL     OW 8182   1.533   2.465   4.508
 2709SOL    HW1 8183   1.609   2.519   4.487
 2709SOL    HW2 8184   1.544   2.443   4.600
 2710SOL     OW 8185   2.479   1.371   2.103
 2710SOL    HW1 8186   2.411   1.307   2.081
 2710SOL    HW2 8187   2.441   1.424   2.172
 2711SOL     OW 8188   2.037   0.804   4.648
 2711SOL    HW1 8189   1.983   0.777   4.722
 2711SOL    HW2 8190   2.087   0.725   4.624
 2712SOL     OW 8191   1.213   3.413   1.349
 2712SOL    HW1 8192   1.303   3.434   1.326
 2712SOL    HW2 8193   1.162   3.484   1.311
 2713SOL     OW 8194   3.434   4.679   3.992
 2713SOL    HW1 8195   3.441   4.767   4.029
 2713SOL    HW2 8196   3.445   4.692   3.897
 2714SOL     OW 8197   0.408   1.552   3.254
 2714SOL    HW1 8198   0.335   1.612   3.264
 2714SOL    HW2 8199   0.369   1.472   3.217
 2715SOL     OW 8200   2.713   4.494   1.148
 2715SOL    HW1 8201   2.809   4.499   1.146
 2715SOL    HW2 8202   2.684   4.564   1.091
 2716SOL     OW 8203   4.660   1.829   1.319
 2716SOL    HW1 8204   4.580   1.860   1.276
 2716SOL    HW2 8205   4.684   1.900   1.379
 2717SOL     OW 8206   0.051   2.301   4.684
 2717SOL    HW1 8207   0.034   2.230   4.623
 2717SOL    HW2 8208   4.940   2.356   4.679
 2718SOL     OW 8209   0.040   3.298   1.681
 2718SOL    HW1 8210   0.111   3.263   1.626
 2718SOL    HW2 8211   0.086   3.342   1.753
 2719SOL     OW 8212   3.114   4.033   1.403
 2719SOL    HW1 8213   3.208   4.016   1.407
 2719SOL    HW2 8214   3.089   4.007   1.314
 2720SOL     OW 8215   4.417   4.392   3.532
 2720SOL    HW1 8216   4.417   4.304   3.494
 2720SOL    HW2 8217   4.499   4.432   3.499
 2721SOL     OW 8218   1.347   0.297   4.272
 2721SOL    HW1 8219   1.331   0.295   4.178
 2721SOL    HW2 8220   1.308   0.379   4.302
 2722SOL     OW 8221   3.659   3.372   3.311
 2722SOL    HW1 8222   3.719   3.350   3.383
 2722SOL    HW2 8223   3.650   3.467   3.315
 2723SOL     OW 8224   0.434   2.171   0.114
 2723SOL    HW1 8225   0.402   2.234   0.049
 2723SOL    HW2 8226   0.370   2.175   0.185
 2724SOL     OW 8227   4.514   3.580   4.197
 2724SOL    HW1 8228   4.515   3.651   4.262
 2724SOL    HW2 8229   4.526   3.500   4.248
 2725SOL     OW 8230   3.471   1.119   2.289
 2725SOL    HW1 8231   3.486   1.212   2.275
 2725SOL    HW2 8232   3.447   1.085   2.202
 2726SOL     OW 8233   1.998   4.625   0.555
 2726SOL    HW1 8234   2.094   4.633   0.559
 2726SOL    HW2 8235   1.975   4.665   0.471
 2727SOL     OW 8236   1.951   3.380   2.898
 2727SOL    HW1 8237   1.893   3.305   2.888
 2727SOL    HW2 8238   1.918   3.426   2.976
 2728SOL     OW 8239   0.434   0.617   0.578
 2728SOL    HW1 8240   0.473   0.563   0.509
 2728SOL    HW2 8241   0.440   0.706   0.544
 2729SOL     OW 8242   0.702   0.854   3.343
 2729SOL    HW1 8243   0.619   0.895   3.367
 2729SOL    HW2 8244   0.725   0.894   3.259
 2730SOL     OW 8245   0.673   1.431   2.259
 2730SOL    HW1 8246   0.636   1.513   2.228
 2730SOL    HW2 8247   0.670   1.372   2.184
 2731SOL     OW 8248   2.006   2.041   2.396
 2731SOL    HW1 8249   1.951   2.101   2.447
 2731SOL    HW2 8250   1.994   2.068   2.305
 2732SOL     OW 8251   4.820   4.262   4.414
 2732SOL    HW1 8252   4.757   4.299   4.476
 2732SOL    HW2 8253   4.873   4.337   4.387
 2733SOL     OW 8254   3.264   0.162   2.100
 2733SOL    HW1 8255   3.338   0.219   2.079
 2733SOL    HW2 8256   3.212   0.212   2.163
 2734SOL     OW 8257   4.614   3.431   4.723
 2734SOL    HW1 8258   4.590   3.431   4.816
 2734SOL    HW2 8259   4.697   3.384   4.720
 2735SOL     OW 8260   2.279   3.159   3.169
 2735SOL    HW1 8261   2.339   3.136   3.241
 2735SOL    HW2 8262   2.192   3.158   3.210
 2736SOL     OW 8263   4.121   3.330   1.824
 2736SOL    HW1 8264   4.150   3.309   1.735
 2736SOL    HW2 8265   4.032   3.364   1.812
 2737SOL     OW 8266   2.444   1.902   3.780
 2737SOL    HW1 8267   2.517   1.954   3.747
 2737SOL    HW2 8268   2.374   1.916   3.716
 2738SOL     OW 8269   1.751   0.535   4.673
 2738SOL    HW1 8270   1.799   0.553   4.754
 2738SOL    HW2 8271   1.801   0.465   4.630
 2739SOL     OW 8272   1.152   1.854   3.859
 2739SOL    HW1 8273   1.060   1.871   3.881
 2739SOL    HW2 8274   1.169   1.908   3.782
 2740SOL     OW 8275   1.739   4.814   1.255
 2740SOL    HW1 8276   1.779   4.791   1.339
 2740SOL    HW2 8277   1.804   4.787   1.189
 2741SOL     OW 8278   1.116   2.321   0.013
 2741SOL    HW1 8279   1.197   2.348   0.058
 2741SOL    HW2 8280   1.127   2.227   4.965
 2742SOL     OW 8281   1.037   0.157   2.757
 2742SOL    HW1 8282   1.006   0.073   2.723
 2742SOL    HW2 8283   1.051   0.142   2.850
 2743SOL     OW 8284   4.713   3.858   3.070
 2743SOL    HW1 8285   4.656   3.855   3.147
 2743SOL    HW2 8286   4.683   3.784   3.016
 2744SOL     OW 8287   4.516   0.109   3.222
 2744SOL    HW1 8288   4.533   0.201   3.240
 2744SOL    HW2 8289   4.460   0.080   3.294
 2745SOL     OW 8290   1.257   3.161   3.026
 2745SOL    HW1 8291   1.248   3.225   3.097
 2745SOL    HW2 8292   1.166   3.140   3.002
 2746SOL     OW 8293   0.026   2.026   1.247
 2746SOL    HW1 8294   0.057   2.111   1.277
 2746SOL    HW2 8295   4.897   2.030   1.256
 2747SOL     OW 8296   4.437   1.473   2.706
 2747SOL    HW1 8297   4.479   1.510   2.628
 2747SOL    HW2 8298   4.475   1.522   2.779
 2748SOL     OW 8299   4.035   1.656   2.886
 2748SOL    HW1 8300   4.095   1.596   2.931
 2748SOL    HW2 8301   3.964   1.600   2.855
 2749SOL     OW 8302   1.929   0.806   0.128
 2749SOL    HW1 8303   2.007   0.781   0.177
 2749SOL    HW2 8304   1.866   0.833   0.194
 2750SOL     OW 8305   4.607   2.630   0.927
 2750SOL    HW1 8306   4.679   2.572   0.949
 2750SOL    HW2 8307   4.633   2.670   0.843
 2751SOL     OW 8308   3.459   2.170   0.109
 2751SOL    HW1 8309   3.375   2.135   0.081
 2751SOL    HW2 8310   3.508   2.094   0.139
 2752SOL     OW 8311   1.184   1.549   0.899
 2752SOL    HW1 8312   1.157   1.490   0.828
 2752SOL    HW2 8313   1.166   1.499   0.979
 2753SOL     OW 8314   1.022   3.841   4.009
 2753SOL    HW1 8315   0.989   3.810   4.094
 2753SOL    HW2 8316   0.957   3.904   3.979
 2754SOL     OW 8317   1.806   2.195   4.690
 2754SOL    HW1 8318   1.734   2.184   4.628
 2754SOL    HW2 8319   1.773   2.160   4.772
 2755SOL     OW 8320   0.871   0.768   1.447
 2755SOL    HW1 8321   0.863   0.855   1.485
 2755SOL    HW2 8322   0.855   0.780   1.353
 2756SOL     OW 8323   3.776   4.814   4.559
 2756SOL    HW1 8324   3.759   4.763   4.638
 2756SOL    HW2 8325   3.844   4.764   4.512
 2757SOL     OW 8326   3.998   4.009   4.526
 2757SOL    HW1 8327   4.074   3.978   4.478
 2757SOL    HW2 8328   3.923   3.971   4.480
 2758SOL     OW 8329   4.498   3.373   1.794
 2758SOL    HW1 8330   4.518   3.448   1.851
 2758SOL    HW2 8331   4.445   3.411   1.723
 2759SOL     OW 8332   0.871   4.491   0.522
 2759SOL    HW1 8333   0.934   4.546   0.476
 2759SOL    HW2 8334   0.843   4.544   0.597
 2760SOL     OW 8335   4.477   2.438   4.666
 2760SOL    HW1 8336   4.391   2.405   4.692
 2760SOL    HW2 8337   4.497   2.392   4.585
 2761SOL     OW 8338   3.363   4.764   4.834
 2761SOL    HW1 8339   3.413   4.822   4.778
 2761SOL    HW2 8340   3.334   4.819   4.907
 2762SOL     OW 8341   3.074   4.211   4.751
 2762SOL    HW1 8342   3.116   4.297   4.751
 2762SOL    HW2 8343   2.983   4.229   4.771
 2763SOL     OW 8344   4.029   0.926   2.594
 2763SOL    HW1 8345   3.937   0.941   2.572
 2763SOL    HW2 8346   4.036   0.950   2.687
 2764SOL     OW 8347   0.745   0.998   4.639
 2764SOL    HW1 8348   0.813   1.063   4.657
 2764SOL    HW2 8349   0.744   0.942   4.717
 2765SOL     OW 8350   4.564   1.580   4.389
 2765SOL    HW1 8351   4.571   1.502   4.333
 2765SOL    HW2 8352   4.579   1.653   4.330
 2766SOL     OW 8353   1.399   1.751   2.115
 2766SOL    HW1 8354   1.312   1.715   2.097
 2766SOL    HW2 8355   1.386   1.803   2.194
 2767SOL     OW 8356   4.647   3.883   2.325
 2767SOL    HW1 8357   4.667   3.946   2.393
 2767SOL    HW2 8358   4.630   3.801   2.372
 2768SOL     OW 8359   1.450   4.089   0.578
 2768SOL    HW1 8360   1.487   4.079   0.490
 2768SOL    HW2 8361   1.362   4.052   0.571
 2769SOL     OW 8362   1.124   0.357   4.525
 2769SOL    HW1 8363   1.089   0.425   4.583
 2769SOL    HW2 8364   1.155   0.405   4.448
 2770SOL     OW 8365   1.526   3.540   0.318
 2770SOL    HW1 8366   1.583   3.617   0.322
 2770SOL    HW2 8367   1.438   3.574   0.332
 2771SOL     OW 8368   4.082   3.345   2.406
 2771SOL    HW1 8369   4.074   3.315   2.497
 2771SOL    HW2 8370   4.122   3.271   2.360
 2772SOL     OW 8371   4.910   2.517   3.584
 2772SOL    HW1 8372   4.925   2.607   3.611
 2772SOL    HW2 8373   4.875   2.473   3.661
 2773SOL     OW 8374   4.510   0.214   4.545
 2773SOL    HW1 8375   4.544   0.172   4.624
 2773SOL    HW2 8376   4.492   0.141   4.485
 2774SOL     OW 8377   2.660   4.491   4.791
 2774SOL    HW1 8378   2.727   4.440   4.836
 2774SOL    HW2 8379   2.660   4.576   4.835
 2775SOL     OW 8380   0.676   3.770   2.159
 2775SOL    HW1 8381   0.760   3.803   2.190
 2775SOL    HW2 8382   0.618   3.846   2.160
 2776SOL     OW 8383   4.594   4.280   1.403
 2776SOL    HW1 8384   4.584   4.241   1.316
 2776SOL    HW2 8385   4.590   4.374   1.388
 2777SOL     OW 8386   2.105   1.586   4.585
 2777SOL    HW1 8387   2.055   1.505   4.578
 2777SOL    HW2 8388   2.043   1.655   4.562
 2778SOL     OW 8389   3.308   1.336   1.285
 2778SOL    HW1 8390   3.225   1.320   1.242
 2778SOL    HW2 8391   3.333   1.251   1.323
 2779SOL     OW 8392   0.414   3.667   2.270
 2779SOL    HW1 8393   0.398   3.614   2.192
 2779SOL    HW2 8394   0.494   3.715   2.252
 2780SOL     OW 8395   0.405   2.481   3.399
 2780SOL    HW1 8396   0.330   2.531   3.365
 2780SOL    HW2 8397   0.438   2.434   3.322
 2781SOL     OW 8398   1.944   2.161   3.623
 2781SOL    HW1 8399   1.977   2.076   3.596
 2781SOL    HW2 8400   2.010   2.223   3.591
 2782SOL     OW 8401   1.321   1.807   3.345
 2782SOL    HW1 8402   1.230   1.796   3.317
 2782SOL    HW2 8403   1.324   1.895   3.382
 2783SOL     OW 8404   3.934   0.266   3.861
 2783SOL    HW1 8405   3.848   0.232   3.886
 2783SOL    HW2 8406   3.945   0.344   3.915
 2784SOL     OW 8407   1.325   4.865   0.315
 2784SOL    HW1 8408   1.378   4.944   0.328
 2784SOL    HW2 8409   1.274   4.884   0.237
 2785SOL     OW 8410   1.066   1.393   0.697
 2785SOL    HW1 8411   0.985   1.387   0.748
 2785SOL    HW2 8412   1.037   1.391   0.606
 2786SOL     OW 8413   1.441   0.758   4.177
 2786SOL    HW1 8414   1.348   0.741   4.160
 2786SOL    HW2 8415   1.482   0.671   4.174
 2787SOL     OW 8416   1.652   4.583   4.678
 2787SOL    HW1 8417   1.661   4.657   4.738
 2787SOL    HW2 8418   1.576   4.605   4.624
 2788SOL     OW 8419   4.718   2.119   4.782
 2788SOL    HW1 8420   4.728   2.214   4.794
 2788SOL    HW2 8421   4.632   2.100   4.818
 2789SOL     OW 8422   0.127   3.516   3.085
 2789SOL    HW1 8423   0.205   3.507   3.030
 2789SOL    HW2 8424   0.065   3.565   3.031
 2790SOL     OW 8425   2.906   4.733   3.784
 2790SOL    HW1 8426   2.855   4.691   3.853
 2790SOL    HW2 8427   2.937   4.661   3.729
 2791SOL     OW 8428   3.768   4.449   3.648
 2791SOL    HW1 8429   3.837   4.510   3.622
 2791SOL    HW2 8430   3.785   4.430   3.740
 2792SOL     OW 8431   2.898   0.133   0.288
 2792SOL    HW1 8432   2.893   0.145   0.383
 2792SOL    HW2 8433   2.959   0.061   0.275
 2793SOL     OW 8434   3.354   4.074   4.939
 2793SOL    HW1 8435   3.310   4.004   4.891
 2793SOL    HW2 8436   3.391   4.131   4.871
 2794SOL     OW 8437   2.330   3.455   1.347
 2794SOL    HW1 8438   2.410   3.483   1.303
 2794SOL    HW2 8439   2.302   3.533   1.396
 2795SOL     OW 8440   0.899   2.732   0.961
 2795SOL    HW1 8441   0.818   2.705   0.917
 2795SOL    HW2 8442   0.959   2.754   0.890
 2796SOL     OW 8443   1.022   4.521   3.385
 2796SOL    HW1 8444   0.990   4.435   3.412
 2796SOL    HW2 8445   0.996   4.528   3.293
 2797SOL     OW 8446   3.430   2.116   2.359
 2797SOL    HW1 8447   3.341   2.120   2.324
 2797SOL    HW2 8448   3.478   2.183   2.311
 2798SOL     OW 8449   3.704   0.142   1.481
 2798SOL    HW1 8450   3.658   0.203   1.538
 2798SOL    HW2 8451   3.708   0.186   1.396
 2799SOL     OW 8452   3.787   4.364   1.107
 2799SOL    HW1 8453   3.732   4.435   1.074
 2799SOL    HW2 8454   3.871   4.375   1.061
 2800SOL     OW 8455   4.300   2.906   3.746
 2800SOL    HW1 8456   4.299   2.958   3.665
 2800SOL    HW2 8457   4.375   2.847   3.736
 2801SOL     OW 8458   0.711   4.398   2.142
 2801SOL    HW1 8459   0.739   4.342   2.214
 2801SOL    HW2 8460   0.710   4.341   2.065
 2802SOL     OW 8461   0.553   4.783   1.307
 2802SOL    HW1 8462   0.511   4.773   1.392
 2802SOL    HW2 8463   0.634   4.830   1.325
 2803SOL     OW 8464   2.078   3.152   0.666
 2803SOL    HW1 8465   2.128   3.206   0.606
 2803SOL    HW2 8466   2.004   3.207   0.692
 2804SOL     OW 8467   0.177   1.175   4.543
 2804SOL    HW1 8468   0.234   1.107   4.508
 2804SOL    HW2 8469   0.206   1.256   4.500
 2805SOL     OW 8470   2.272   1.712   1.595
 2805SOL    HW1 8471   2.349   1.740   1.644
 2805SOL    HW2 8472   2.219   1.664   1.658
 2806SOL     OW 8473   0.416   1.556   2.618
 2806SOL    HW1 8474   0.508   1.574   2.599
 2806SOL    HW2 8475   0.391   1.621   2.683
 2807SOL     OW 8476   0.132   2.499   2.543
 2807SOL    HW1 8477   0.182   2.534   2.616
 2807SOL    HW2 8478   0.104   2.412   2.572
 2808SOL     OW 8479   3.911   2.472   3.374
 2808SOL    HW1 8480   3.964   2.418   3.315
 2808SOL    HW2 8481   3.831   2.421   3.387
 2809SOL     OW 8482   2.411   1.916   0.292
 2809SOL    HW1 8483   2.472   1.875   0.231
 2809SOL    HW2 8484   2.446   1.896   0.379
 2810SOL     OW 8485   4.806   2.535   2.908
 2810SOL    HW1 8486   4.899   2.516   2.923
 2810SOL    HW2 8487   4.787   2.494   2.824
 2811SOL     OW 8488   1.124   1.508   4.944
 2811SOL    HW1 8489   1.060   1.472   0.040
 2811SOL    HW2 8490   1.098   1.472   4.860
 2812SOL     OW 8491   4.941   3.184   3.515
 2812SOL    HW1 8492   0.024   3.103   3.524
 2812SOL    HW2 8493   4.941   3.222   3.603
 2813SOL     OW 8494   2.139   3.599   4.569
 2813SOL    HW1 8495   2.088   3.655   4.627
 2813SOL    HW2 8496   2.088   3.519   4.562
 2814SOL     OW 8497   2.201   2.263   0.817
 2814SOL    HW1 8498   2.107   2.245   0.816
 2814SOL    HW2 8499   2.241   2.182   0.785
 2815SOL     OW 8500   3.416   3.107   0.966
 2815SOL    HW1 8501   3.426   3.202   0.967
 2815SOL    HW2 8502   3.489   3.075   1.019
 2816SOL     OW 8503   3.932   0.438   4.629
 2816SOL    HW1 8504   3.857   0.457   4.686
 2816SOL    HW2 8505   4.008   0.448   4.685
 2817SOL     OW 8506   3.466   2.403   4.070
 2817SOL    HW1 8507   3.497   2.330   4.017
 2817SOL    HW2 8508   3.485   2.480   4.016
 2818SOL     OW 8509   2.153   4.031   3.504
 2818SOL    HW1 8510   2.120   3.989   3.425
 2818SOL    HW2 8511   2.120   3.976   3.575
 2819SOL     OW 8512   4.939   0.563   3.909
 2819SOL    HW1 8513   4.858   0.599   3.874
 2819SOL    HW2 8514   0.041   0.623   3.878
 2820SOL     OW 8515   3.327   1.585   1.402
 2820SOL    HW1 8516   3.306   1.510   1.346
 2820SOL    HW2 8517   3.244   1.631   1.413
 2821SOL     OW 8518   4.038   0.785   4.781
 2821SOL    HW1 8519   3.955   0.743   4.758
 2821SOL    HW2 8520   4.099   0.756   4.714
 2822SOL     OW 8521   1.853   2.135   2.707
 2822SOL    HW1 8522   1.926   2.196   2.716
 2822SOL    HW2 8523   1.820   2.150   2.619
 2823SOL     OW 8524   0.890   4.583   2.864
 2823SOL    HW1 8525   0.945   4.511   2.835
 2823SOL    HW2 8526   0.814   4.580   2.806
 2824SOL     OW 8527   1.352   0.148   1.144
 2824SOL    HW1 8528   1.436   0.116   1.176
 2824SOL    HW2 8529   1.290   0.079   1.165
 2825SOL     OW 8530   1.130   1.804   0.671
 2825SOL    HW1 8531   1.137   1.897   0.653
 2825SOL    HW2 8532   1.211   1.781   0.717
 2826SOL     OW 8533   4.131   1.094   3.443
 2826SOL    HW1 8534   4.067   1.153   3.482
 2826SOL    HW2 8535   4.111   1.096   3.349
 2827SOL     OW 8536   0.016   2.620   4.152
 2827SOL    HW1 8537   0.056   2.583   4.073
 2827SOL    HW2 8538   4.889   2.604   4.142
 2828SOL     OW 8539   2.922   3.580   1.014
 2828SOL    HW1 8540   2.911   3.662   0.964
 2828SOL    HW2 8541   2.867   3.517   0.968
 2829SOL     OW 8542   3.658   1.747   3.942
 2829SOL    HW1 8543   3.641   1.799   3.864
 2829SOL    HW2 8544   3.645   1.809   4.015
 2830SOL     OW 8545   3.194   1.817   0.009
 2830SOL    HW1 8546   3.167   1.835   0.099
 2830SOL    HW2 8547   3.282   1.853   0.002
 2831SOL     OW 8548   4.824   0.624   0.013
 2831SOL    HW1 8549   4.891   0.690   4.961
 2831SOL    HW2 8550   4.874   0.545   0.033
 2832SOL     OW 8551   1.217   3.507   1.934
 2832SOL    HW1 8552   1.202   3.568   1.862
 2832SOL    HW2 8553   1.139   3.451   1.935
 2833SOL     OW 8554   4.806   1.982   3.989
 2833SOL    HW1 8555   4.870   1.984   4.060
 2833SOL    HW2 8556   4.773   1.893   3.988
 2834SOL     OW 8557   3.076   3.597   4.638
 2834SOL    HW1 8558   3.161   3.574   4.600
 2834SOL    HW2 8559   3.018   3.526   4.611
 2835SOL     OW 8560   1.286   2.603   2.046
 2835SOL    HW1 8561   1.309   2.595   2.139
 2835SOL    HW2 8562   1.245   2.689   2.039
 2836SOL     OW 8563   4.897   3.085   2.623
 2836SOL    HW1 8564   4.930   3.071   2.534
 2836SOL    HW2 8565   4.893   2.997   2.661
 2837SOL     OW 8566   1.554   2.690   1.671
 2837SOL    HW1 8567   1.469   2.731   1.658
 2837SOL    HW2 8568   1.542   2.632   1.746
 2838SOL     OW 8569   3.737   1.397   3.899
 2838SOL    HW1 8570   3.655   1.445   3.914
 2838SOL    HW2 8571   3.800   1.439   3.956
 2839SOL     OW 8572   4.239   4.365   3.874
 2839SOL    HW1 8573   4.266   4.452   3.903
 2839SOL    HW2 8574   4.159   4.347   3.923
 2840SOL     OW 8575   0.120   3.190   4.655
 2840SOL    HW1 8576   0.178   3.254   4.696
 2840SOL    HW2 8577   0.165   3.165   4.575
 2841SOL     OW 8578   4.841   3.607   3.980
 2841SOL    HW1 8579   4.898   3.545   4.028
 2841SOL    HW2 8580   4.900   3.650   3.918
 2842SOL     OW 8581   2.758   2.628   3.154
 2842SOL    HW1 8582   2.841   2.664   3.122
 2842SOL    HW2 8583   2.725   2.576   3.081
 2843SOL     OW 8584   3.951   4.322   1.324
 2843SOL    HW1 8585   3.889   4.356   1.259
 2843SOL    HW2 8586   3.945   4.383   1.397
 2844SOL     OW 8587   2.152   4.923   0.459
 2844SOL    HW1 8588   2.086   0.007   0.507
 2844SOL    HW2 8589   2.102   4.868   0.399
 2845SOL     OW 8590   4.169   4.176   1.664
 2845SOL    HW1 8591   4.202   4.228   1.737
 2845SOL    HW2 8592   4.128   4.100   1.706
 2846SOL     OW 8593   1.022   4.079   3.460
 2846SOL    HW1 8594   0.978   4.163   3.448
 2846SOL    HW2 8595   1.111   4.101   3.486
 2847SOL     OW 8596   1.811   3.866   0.642
 2847SOL    HW1 8597   1.880   3.910   0.593
 2847SOL    HW2 8598   1.847   3.857   0.731
 2848SOL     OW 8599   4.094   0.270   4.428
 2848SOL    HW1 8600   4.180   0.275   4.468
 2848SOL    HW2 8601   4.042   0.336   4.473
 2849SOL     OW 8602   2.991   1.605   2.980
 2849SOL    HW1 8603   2.955   1.544   2.916
 2849SOL    HW2 8604   3.040   1.551   3.041
 2850SOL     OW 8605   0.491   0.234   2.200
 2850SOL    HW1 8606   0.488   0.142   2.225
 2850SOL    HW2 8607   0.446   0.238   2.116
 2851SOL     OW 8608   0.671   4.700   0.453
 2851SOL    HW1 8609   0.579   4.685   0.434
 2851SOL    HW2 8610   0.717   4.662   0.378
 2852SOL     OW 8611   4.749   2.941   1.389
 2852SOL    HW1 8612   4.720   2.849   1.386
 2852SOL    HW2 8613   4.675   2.988   1.427
 2853SOL     OW 8614   3.267   1.929   1.991
 2853SOL    HW1 8615   3.299   1.848   2.030
 2853SOL    HW2 8616   3.208   1.900   1.921
 2854SOL     OW 8617   4.682   3.680   2.532
 2854SOL    HW1 8618   4.729   3.719   2.606
 2854SOL    HW2 8619   4.728   3.598   2.514
 2855SOL     OW 8620   2.413   3.027   3.382
 2855SOL    HW1 8621   2.335   3.011   3.435
 2855SOL    HW2 8622   2.484   3.034   3.446
 2856SOL     OW 8623   2.016   2.933   0.162
 2856SOL    HW1 8624   2.076   2.973   0.099
 2856SOL    HW2 8625   1.978   2.859   0.116
 2857SOL     OW 8626   3.365   1.240   0.025
 2857SOL    HW1 8627   3.301   1.179   0.060
 2857SOL    HW2 8628   3.448   1.193   0.029
 2858SOL     OW 8629   1.332   3.719   4.358
 2858SOL    HW1 8630   1.366   3.710   4.269
 2858SOL    HW2 8631   1.246   3.676   4.355
 2859SOL     OW 8632   2.968   4.343   3.342
 2859SOL    HW1 8633   3.036   4.347   3.274
 2859SOL    HW2 8634   2.888   4.370   3.297
 2860SOL     OW 8635   4.081   2.694   1.969
 2860SOL    HW1 8636   4.030   2.647   2.035
 2860SOL    HW2 8637   4.022   2.760   1.935
 2861SOL     OW 8638   1.506   4.946   1.295
 2861SOL    HW1 8639   1.471   4.903   1.373
 2861SOL    HW2 8640   1.584   4.895   1.272
 2862SOL     OW 8641   3.103   4.901   0.179
 2862SOL    HW1 8642   3.126   4.880   0.270
 2862SOL    HW2 8643   3.187   4.908   0.134
 2863SOL     OW 8644   2.599   1.957   1.467
 2863SOL    HW1 8645   2.687   1.987   1.443
 2863SOL    HW2 8646   2.542   1.990   1.397
 2864SOL     OW 8647   4.532   2.647   4.273
 2864SOL    HW1 8648   4.524   2.726   4.218
 2864SOL    HW2 8649   4.515   2.678   4.362
 2865SOL     OW 8650   4.231   0.899   1.051
 2865SOL    HW1 8651   4.247   0.858   1.137
 2865SOL    HW2 8652   4.163   0.964   1.068
 2866SOL     OW 8653   1.426   1.590   1.031
 2866SOL    HW1 8654   1.475   1.670   1.012
 2866SOL    HW2 8655   1.341   1.604   0.989
 2867SOL     OW 8656   0.372   3.403   4.306
 2867SOL    HW1 8657   0.326   3.360   4.234
 2867SOL    HW2 8658   0.381   3.335   4.373
 2868SOL     OW 8659   2.039   4.147   4.569
 2868SOL    HW1 8660   2.105   4.110   4.629
 2868SOL    HW2 8661   2.089   4.204   4.511
 2869SOL     OW 8662   3.936   1.878   0.267
 2869SOL    HW1 8663   4.030   1.864   0.281
 2869SOL    HW2 8664   3.894   1.839   0.344
 2870SOL     OW 8665   2.005   2.245   3.291
 2870SOL    HW1 8666   2.009   2.150   3.290
 2870SOL    HW2 8667   1.927   2.267   3.240
 2871SOL     OW 8668   1.847   3.862   1.859
 2871SOL    HW1 8669   1.900   3.883   1.782
 2871SOL    HW2 8670   1.774   3.810   1.826
 2872SOL     OW 8671   3.891   4.942   3.407
 2872SOL    HW1 8672   3.873   4.869   3.466
 2872SOL    HW2 8673   3.933   0.041   3.463
 2873SOL     OW 8674   3.021   4.701   3.344
 2873SOL    HW1 8675   3.094   4.717   3.285
 2873SOL    HW2 8676   2.981   4.787   3.357
 2874SOL     OW 8677   0.372   0.311   1.133
 2874SOL    HW1 8678   0.413   0.224   1.127
 2874SOL    HW2 8679   0.291   0.295   1.181
 2875SOL     OW 8680   1.413   4.787   3.544
 2875SOL    HW1 8681   1.380   4.730   3.474
 2875SOL    HW2 8682   1.350   4.776   3.615
 2876SOL     OW 8683   1.728   4.439   3.829
 2876SOL    HW1 8684   1.685   4.423   3.745
 2876SOL    HW2 8685   1.655   4.450   3.891
 2877SOL     OW 8686   1.702   3.902   3.839
 2877SOL    HW1 8687   1.718   3.818   3.881
 2877SOL    HW2 8688   1.611   3.922   3.859
 2878SOL     OW 8689   4.173   2.003   2.603
 2878SOL    HW1 8690   4.176   1.907   2.596
 2878SOL    HW2 8691   4.264   2.029   2.617
 2879SOL     OW 8692   4.021   1.265   2.316
 2879SOL    HW1 8693   4.114   1.264   2.339
 2879SOL    HW2 8694   4.003   1.177   2.284
 2880SOL     OW 8695   4.162   4.086   0.503
 2880SOL    HW1 8696   4.238   4.101   0.447
 2880SOL    HW2 8697   4.128   4.001   0.475
 2881SOL     OW 8698   4.779   1.238   4.611
 2881SOL    HW1 8699   4.809   1.178   4.678
 2881SOL    HW2 8700   4.855   1.294   4.593
 2882SOL     OW 8701   0.487   4.428   3.243
 2882SOL    HW1 8702   0.556   4.364   3.261
 2882SOL    HW2 8703   0.531   4.499   3.197
 2883SOL     OW 8704   4.352   3.250   4.831
 2883SOL    HW1 8705   4.404   3.247   4.912
 2883SOL    HW2 8706   4.272   3.297   4.855
 2884SOL     OW 8707   3.219   1.052   0.545
 2884SOL    HW1 8708   3.131   1.064   0.511
 2884SOL    HW2 8709   3.207   1.001   0.626
 2885SOL     OW 8710   0.649   1.939   3.292
 2885SOL    HW1 8711   0.587   1.980   3.353
 2885SOL    HW2 8712   0.604   1.939   3.208
 2886SOL     OW 8713   3.678   0.283   1.234
 2886SOL    HW1 8714   3.666   0.344   1.162
 2886SOL    HW2 8715   3.626   0.206   1.209
 2887SOL     OW 8716   4.796   0.028   2.035
 2887SOL    HW1 8717   4.733   0.015   1.964
 2887SOL    HW2 8718   4.766   0.107   2.079
 2888SOL     OW 8719   4.877   1.912   2.100
 2888SOL    HW1 8720   4.963   1.884   2.069
 2888SOL    HW2 8721   4.823   1.833   2.095
 2889SOL     OW 8722   3.186   3.921   2.464
 2889SOL    HW1 8723   3.250   3.930   2.535
 2889SOL    HW2 8724   3.225   3.858   2.404
 2890SOL     OW 8725   4.594   3.368   4.328
 2890SOL    HW1 8726   4.534   3.294   4.321
 2890SOL    HW2 8727   4.652   3.346   4.401
 2891SOL     OW 8728   0.860   2.998   2.784
 2891SOL    HW1 8729   0.785   2.941   2.800
 2891SOL    HW2 8730   0.934   2.939   2.776
 2892SOL     OW 8731   4.302   0.079   1.065
 2892SOL    HW1 8732   4.219   0.105   1.024
 2892SOL    HW2 8733   4.355   0.158   1.062
 2893SOL     OW 8734   0.595   3.909   4.872
 2893SOL    HW1 8735   0.555   3.953   4.796
 2893SOL    HW2 8736   0.614   3.820   4.841
 2894SOL     OW 8737   0.041   0.652   1.726
 2894SOL    HW1 8738   0.106   0.589   1.697
 2894SOL    HW2 8739   0.090   0.734   1.737
 2895SOL     OW 8740   2.894   4.633   0.952
 2895SOL    HW1 8741   2.975   4.591   0.921
 2895SOL    HW2 8742   2.918   4.724   0.966
 2896SOL     OW 8743   1.794   2.933   2.325
 2896SOL    HW1 8744   1.839   2.981   2.256
 2896SOL    HW2 8745   1.720   2.989   2.348
 2897SOL     OW 8746   1.847   4.284   1.870
 2897SOL    HW1 8747   1.838   4.356   1.933
 2897SOL    HW2 8748   1.869   4.208   1.923
 2898SOL     OW 8749   1.245   4.490   4.527
 2898SOL    HW1 8750   1.202   4.492   4.613
 2898SOL    HW2 8751   1.289   4.406   4.524
 2899SOL     OW 8752   4.453   4.462   2.420
 2899SOL    HW1 8753   4.528   4.441   2.475
 2899SOL    HW2 8754   4.416   4.542   2.459
 2900SOL     OW 8755   3.555   0.886   2.807
 2900SOL    HW1 8756   3.483   0.920   2.753
 2900SOL    HW2 8757   3.632   0.934   2.777
 2901SOL     OW 8758   3.854   2.188   0.599
 2901SOL    HW1 8759   3.803   2.237   0.533
 2901SOL    HW2 8760   3.934   2.164   0.553
 2902SOL     OW 8761   3.699   2.655   2.575
 2902SOL    HW1 8762   3.732   2.673   2.487
 2902SOL    HW2 8763   3.678   2.562   2.575
 2903SOL     OW 8764   3.964   4.399   3.332
 2903SOL    HW1 8765   4.003   4.379   3.417
 2903SOL    HW2 8766   4.037   4.431   3.279
 2904SOL     OW 8767   0.867   3.602   0.758
 2904SOL    HW1 8768   0.861   3.587   0.664
 2904SOL    HW2 8769   0.952   3.645   0.770
 2905SOL     OW 8770   2.550   2.064   2.967
 2905SOL    HW1 8771   2.541   2.143   2.913
 2905SOL    HW2 8772   2.595   2.094   3.046
 2906SOL     OW 8773   4.420   1.349   2.936
 2906SOL    HW1 8774   4.497   1.389   2.976
 2906SOL    HW2 8775   4.434   1.359   2.841
 2907SOL     OW 8776   3.346   0.702   1.279
 2907SOL    HW1 8777   3.343   0.687   1.184
 2907SOL    HW2 8778   3.259   0.734   1.301
 2908SOL     OW 8779   2.838   4.357   4.921
 2908SOL    HW1 8780   2.795   4.296   0.014
 2908SOL    HW2 8781   2.891   4.413   0.012
 2909SOL     OW 8782   0.237   2.802   1.071
 2909SOL    HW1 8783   0.181   2.856   1.126
 2909SOL    HW2 8784   0.231   2.843   0.984
 2910SOL     OW 8785   0.022   1.484   4.264
 2910SOL    HW1 8786   0.061   1.511   4.347
 2910SOL    HW2 8787   0.090   1.431   4.222
 2911SOL     OW 8788   0.294   3.419   4.682
 2911SOL    HW1 8789   0.336   3.365   4.615
 2911SOL    HW2 8790   0.232   3.474   4.635
 2912SOL     OW 8791   4.203   3.316   3.382
 2912SOL    HW1 8792   4.222   3.367   3.461
 2912SOL    HW2 8793   4.158   3.378   3.325
 2913SOL     OW 8794   1.358   1.244   1.553
 2913SOL    HW1 8795   1.351   1.339   1.563
 2913SOL    HW2 8796   1.400   1.215   1.634
 2914SOL     OW 8797   0.327   0.386   1.490
 2914SOL    HW1 8798   0.352   0.301   1.527
 2914SOL    HW2 8799   0.343   0.449   1.560
 2915SOL     OW 8800   4.284   2.171   3.004
 2915SOL    HW1 8801   4.365   2.138   2.966
 2915SOL    HW2 8802   4.220   2.102   2.987
 2916SOL     OW 8803   4.536   3.029   3.599
 2916SOL    HW1 8804   4.527   3.084   3.676
 2916SOL    HW2 8805   4.499   3.081   3.527
 2917SOL     OW 8806   4.488   1.250   0.705
 2917SOL    HW1 8807   4.512   1.275   0.794
 2917SOL    HW2 8808   4.467   1.157   0.711
 2918SOL     OW 8809   3.524   1.008   1.196
 2918SOL    HW1 8810   3.462   1.011   1.269
 2918SOL    HW2 8811   3.569   1.092   1.198
 2919SOL     OW 8812   2.707   1.839   2.431
 2919SOL    HW1 8813   2.720   1.929   2.461
 2919SOL    HW2 8814   2.634   1.806   2.483
 2920SOL     OW 8815   4.496   0.017   0.000
 2920SOL    HW1 8816   4.575   4.939   0.030
 2920SOL    HW2 8817   4.526   0.105   4.944
 2921SOL     OW 8818   3.146   3.096   2.586
 2921SOL    HW1 8819   3.160   3.126   2.496
 2921SOL    HW2 8820   3.164   3.174   2.640
 2922SOL     OW 8821   3.442   3.097   2.599
 2922SOL    HW1 8822   3.430   3.184   2.635
 2922SOL    HW2 8823   3.353   3.063   2.587
 2923SOL     OW 8824   0.361   3.501   0.327
 2923SOL    HW1 8825   0.360   3.485   0.232
 2923SOL    HW2 8826   0.410   3.428   0.363
 2924SOL     OW 8827   2.996   1.161   0.781
 2924SOL    HW1 8828   2.966   1.240   0.825
 2924SOL    HW2 8829   3.066   1.190   0.723
 2925SOL     OW 8830   3.187   3.667   1.281
 2925SOL    HW1 8831   3.239   3.739   1.247
 2925SOL    HW2 8832   3.220   3.589   1.235
 2926SOL     OW 8833   3.721   4.027   2.327
 2926SOL    HW1 8834   3.758   4.101   2.377
 2926SOL    HW2 8835   3.638   4.008   2.371
 2927SOL     OW 8836   4.847   2.810   0.625
 2927SOL    HW1 8837   4.874   2.871   0.694
 2927SOL    HW2 8838   4.927   2.764   0.600
 2928SOL     OW 8839   0.502   2.184   3.402
 2928SOL    HW1 8840   0.504   2.192   3.498
 2928SOL    HW2 8841   0.409   2.174   3.381
 2929SOL     OW 8842   0.719   1.496   0.259
 2929SOL    HW1 8843   0.671   1.551   0.198
 2929SOL    HW2 8844   0.727   1.549   0.339
 2930SOL     OW 8845   3.619   0.255   2.433
 2930SOL    HW1 8846   3.526   0.246   2.413
 2930SOL    HW2 8847   3.641   0.174   2.479
 2931SOL     OW 8848   3.097   2.070   1.486
 2931SOL    HW1 8849   3.091   2.143   1.548
 2931SOL    HW2 8850   3.189   2.043   1.490
 2932SOL     OW 8851   0.657   1.960   3.592
 2932SOL    HW1 8852   0.750   1.952   3.574
 2932SOL    HW2 8853   0.630   1.871   3.616
 2933SOL     OW 8854   0.969   4.386   3.840
 2933SOL    HW1 8855   0.884   4.344   3.828
 2933SOL    HW2 8856   0.949   4.480   3.847
 2934SOL     OW 8857   0.385   0.313   0.670
 2934SOL    HW1 8858   0.474   0.290   0.699
 2934SOL    HW2 8859   0.384   0.408   0.671
 2935SOL     OW 8860   3.543   4.803   2.508
 2935SOL    HW1 8861   3.587   4.767   2.431
 2935SOL    HW2 8862   3.596   4.879   2.531
 2936SOL     OW 8863   3.614   2.584   4.549
 2936SOL    HW1 8864   3.537   2.612   4.599
 2936SOL    HW2 8865   3.578   2.530   4.478
 2937SOL     OW 8866   2.770   4.090   2.211
 2937SOL    HW1 8867   2.854   4.109   2.253
 2937SOL    HW2 8868   2.787   4.012   2.158
 2938SOL     OW 8869   2.976   2.718   2.403
 2938SOL    HW1 8870   2.938   2.806   2.409
 2938SOL    HW2 8871   2.926   2.674   2.335
 2939SOL     OW 8872   1.617   2.056   3.860
 2939SOL    HW1 8873   1.667   2.137   3.859
 2939SOL    HW2 8874   1.577   2.054   3.947
 2940SOL     OW 8875   4.301   1.082   0.152
 2940SOL    HW1 8876   4.366   1.099   0.084
 2940SOL    HW2 8877   4.346   1.102   0.234
 2941SOL     OW 8878   4.540   0.993   4.956
 2941SOL    HW1 8879   4.574   0.918   0.038
 2941SOL    HW2 8880   4.548   0.968   4.864
 2942SOL     OW 8881   0.848   0.970   2.044
 2942SOL    HW1 8882   0.752   0.963   2.049
 2942SOL    HW2 8883   0.879   0.880   2.048
 2943SOL     OW 8884   0.993   3.913   4.718
 2943SOL    HW1 8885   1.020   3.839   4.664
 2943SOL    HW2 8886   0.970   3.874   4.802
 2944SOL     OW 8887   4.773   3.088   4.230
 2944SOL    HW1 8888   4.825   3.029   4.175
 2944SOL    HW2 8889   4.766   3.169   4.178
 2945SOL     OW 8890   0.312   1.605   2.935
 2945SOL    HW1 8891   0.218   1.595   2.921
 2945SOL    HW2 8892   0.341   1.519   2.966
 2946SOL     OW 8893   1.976   3.527   1.449
 2946SOL    HW1 8894   1.954   3.610   1.492
 2946SOL    HW2 8895   1.920   3.462   1.492
 2947SOL     OW 8896   2.762   2.153   0.019
 2947SOL    HW1 8897   2.670   2.130   0.030
 2947SOL    HW2 8898   2.805   2.070   4.961
 2948SOL     OW 8899   4.556   4.821   4.126
 2948SOL    HW1 8900   4.466   4.851   4.145
 2948SOL    HW2 8901   4.594   4.892   4.074
 2949SOL     OW 8902   2.436   1.248   3.956
 2949SOL    HW1 8903   2.530   1.260   3.963
 2949SOL    HW2 8904   2.399   1.305   4.023
 2950SOL     OW 8905   4.819   3.332   4.511
 2950SOL    HW1 8906   4.822   3.249   4.559
 2950SOL    HW2 8907   4.911   3.359   4.504
 2951SOL     OW 8908   3.825   4.172   3.079
 2951SOL    HW1 8909   3.827   4.077   3.065
 2951SOL    HW2 8910   3.845   4.210   2.994
 2952SOL     OW 8911   4.928   3.927   1.667
 2952SOL    HW1 8912   4.964   3.917   1.579
 2952SOL    HW2 8913   4.855   3.865   1.670
 2953SOL     OW 8914   2.863   4.824   1.312
 2953SOL    HW1 8915   2.886   4.779   1.230
 2953SOL    HW2 8916   2.876   4.758   1.380
 2954SOL     OW 8917   2.046   3.092   3.738
 2954SOL    HW1 8918   1.964   3.042   3.742
 2954SOL    HW2 8919   2.080   3.091   3.827
 2955SOL     OW 8920   2.947   2.461   3.772
 2955SOL    HW1 8921   2.872   2.518   3.753
 2955SOL    HW2 8922   2.965   2.477   3.865
 2956SOL     OW 8923   2.016   0.152   3.297
 2956SOL    HW1 8924   1.956   0.180   3.229
 2956SOL    HW2 8925   2.094   0.121   3.249
 2957SOL     OW 8926   3.782   3.696   4.661
 2957SOL    HW1 8927   3.723   3.769   4.641
 2957SOL    HW2 8928   3.851   3.735   4.714
 2958SOL     OW 8929   1.914   0.093   1.445
 2958SOL    HW1 8930   1.854   0.101   1.519
 2958SOL    HW2 8931   1.925   4.966   1.433
 2959SOL     OW 8932   0.555   2.423   1.849
 2959SOL    HW1 8933   0.489   2.449   1.912
 2959SOL    HW2 8934   0.594   2.506   1.819
 2960SOL     OW 8935   0.597   0.426   1.223
 2960SOL    HW1 8936   0.633   0.451   1.137
 2960SOL    HW2 8937   0.507   0.402   1.205
 2961SOL     OW 8938   4.225   3.261   1.155
 2961SOL    HW1 8939   4.158   3.198   1.128
 2961SOL    HW2 8940   4.288   3.209   1.205
 2962SOL     OW 8941   1.830   2.588   2.847
 2962SOL    HW1 8942   1.762   2.521   2.854
 2962SOL    HW2 8943   1.906   2.550   2.892
 2963SOL     OW 8944   1.514   3.166   4.083
 2963SOL    HW1 8945   1.442   3.165   4.020
 2963SOL    HW2 8946   1.494   3.240   4.141
 2964SOL     OW 8947   1.636   3.376   1.750
 2964SOL    HW1 8948   1.574   3.378   1.824
 2964SOL    HW2 8949   1.618   3.294   1.706
 2965SOL     OW 8950   1.275   2.484   4.167
 2965SOL    HW1 8951   1.278   2.579   4.155
 2965SOL    HW2 8952   1.366   2.457   4.164
 2966SOL     OW 8953   2.926   1.393   4.791
 2966SOL    HW1 8954   2.999   1.442   4.754
 2966SOL    HW2 8955   2.940   1.394   4.885
 2967SOL     OW 8956   1.950   0.356   2.161
 2967SOL    HW1 8957   1.983   0.444   2.147
 2967SOL    HW2 8958   1.855   0.362   2.149
 2968SOL     OW 8959   4.176   1.015   1.415
 2968SOL    HW1 8960   4.115   1.070   1.465
 2968SOL    HW2 8961   4.120   0.952   1.369
 2969SOL     OW 8962   0.337   3.562   1.033
 2969SOL    HW1 8963   0.290   3.525   0.958
 2969SOL    HW2 8964   0.421   3.516   1.033
 2970SOL     OW 8965   3.542   1.450   0.004
 2970SOL    HW1 8966   3.602   1.392   0.050
 2970SOL    HW2 8967   3.457   1.409   0.012
 2971SOL     OW 8968   1.845   4.063   3.335
 2971SOL    HW1 8969   1.847   4.092   3.426
 2971SOL    HW2 8970   1.753   4.043   3.318
 2972SOL     OW 8971   0.054   1.580   2.910
 2972SOL    HW1 8972   4.960   1.637   2.863
 2972SOL    HW2 8973   0.006   1.553   2.988
 2973SOL     OW 8974   0.593   3.329   0.679
 2973SOL    HW1 8975   0.662   3.389   0.651
 2973SOL    HW2 8976   0.577   3.273   0.604
 2974SOL     OW 8977   2.052   2.542   3.349
 2974SOL    HW1 8978   2.001   2.588   3.282
 2974SOL    HW2 8979   2.030   2.449   3.336
 2975SOL     OW 8980   3.229   2.854   4.276
 2975SOL    HW1 8981   3.255   2.763   4.294
 2975SOL    HW2 8982   3.242   2.899   4.359
 2976SOL     OW 8983   4.437   0.493   0.433
 2976SOL    HW1 8984   4.370   0.554   0.402
 2976SOL    HW2 8985   4.478   0.538   0.507
 2977SOL     OW 8986   1.933   3.415   4.524
 2977SOL    HW1 8987   1.896   3.455   4.445
 2977SOL    HW2 8988   1.930   3.321   4.507
 2978SOL     OW 8989   0.285   1.349   4.130
 2978SOL    HW1 8990   0.321   1.270   4.090
 2978SOL    HW2 8991   0.214   1.376   4.070
 2979SOL     OW 8992   3.495   1.204   1.997
 2979SOL    HW1 8993   3.454   1.285   1.968
 2979SOL    HW2 8994   3.480   1.142   1.926
 2980SOL     OW 8995   1.869   4.710   0.776
 2980SOL    HW1 8996   1.775   4.728   0.775
 2980SOL    HW2 8997   1.885   4.664   0.693
 2981SOL     OW 8998   2.236   1.634   1.101
 2981SOL    HW1 8999   2.268   1.705   1.158
 2981SOL    HW2 9000   2.211   1.678   1.020
 2982SOL     OW 9001   2.280   1.740   4.182
 2982SOL    HW1 9002   2.261   1.806   4.248
 2982SOL    HW2 9003   2.260   1.782   4.098
 2983SOL     OW 9004   1.467   3.068   0.572
 2983SOL    HW1 9005   1.552   3.106   0.594
 2983SOL    HW2 9006   1.406   3.108   0.635
 2984SOL     OW 9007   3.719   4.667   1.559
 2984SOL    HW1 9008   3.709   4.735   1.625
 2984SOL    HW2 9009   3.668   4.593   1.593
 2985SOL     OW 9010   3.491   1.453   2.600
 2985SOL    HW1 9011   3.438   1.514   2.651
 2985SOL    HW2 9012   3.538   1.509   2.538
 2986SOL     OW 9013   3.332   3.534   4.552
 2986SOL    HW1 9014   3.356   3.526   4.460
 2986SOL    HW2 9015   3.406   3.496   4.600
 2987SOL     OW 9016   0.643   2.693   2.719
 2987SOL    HW1 9017   0.585   2.715   2.646
 2987SOL    HW2 9018   0.622   2.757   2.787
 2988SOL     OW 9019   3.625   4.143   1.742
 2988SOL    HW1 9020   3.665   4.201   1.677
 2988SOL    HW2 9021   3.535   4.130   1.711
 2989SOL     OW 9022   0.211   0.021   3.830
 2989SOL    HW1 9023   0.195   4.909   3.882
 2989SOL    HW2 9024   0.124   0.053   3.808
 2990SOL     OW 9025   2.998   3.219   3.280
 2990SOL    HW1 9026   2.985   3.160   3.206
 2990SOL    HW2 9027   3.019   3.161   3.353
 2991SOL     OW 9028   0.886   1.684   2.050
 2991SOL    HW1 9029   0.826   1.692   1.976
 2991SOL    HW2 9030   0.973   1.678   2.011
 2992SOL     OW 9031   2.985   3.460   3.730
 2992SOL    HW1 9032   3.056   3.407   3.766
 2992SOL    HW2 9033   2.997   3.546   3.771
 2993SOL     OW 9034   3.041   1.149   4.334
 2993SOL    HW1 9035   3.006   1.219   4.280
 2993SOL    HW2 9036   2.968   1.122   4.390
 2994SOL     OW 9037   1.429   1.692   0.231
 2994SOL    HW1 9038   1.428   1.628   0.159
 2994SOL    HW2 9039   1.489   1.760   0.202
 2995SOL     OW 9040   0.485   0.872   0.495
 2995SOL    HW1 9041   0.564   0.881   0.548
 2995SOL    HW2 9042   0.427   0.940   0.527
 2996SOL     OW 9043   4.601   0.544   1.676
 2996SOL    HW1 9044   4.622   0.580   1.762
 2996SOL    HW2 9045   4.548   0.467   1.695
 2997SOL     OW 9046   1.933   1.365   3.706
 2997SOL    HW1 9047   1.986   1.358   3.626
 2997SOL    HW2 9048   1.844   1.343   3.677
 2998SOL     OW 9049   3.030   4.508   3.040
 2998SOL    HW1 9050   3.055   4.494   2.949
 2998SOL    HW2 9051   2.963   4.576   3.037
 2999SOL     OW 9052   0.901   1.964   3.901
 2999SOL    HW1 9053   0.911   1.976   3.996
 2999SOL    HW2 9054   0.916   2.051   3.864
 3000SOL     OW 9055   4.347   3.674   1.919
 3000SOL    HW1 9056   4.400   3.620   1.979
 3000SOL    HW2 9057   4.342   3.622   1.839
 3001SOL     OW 9058   4.053   0.410   0.083
 3001SOL    HW1 9059   4.037   0.504   0.086
 3001SOL    HW2 9060   4.073   0.392   4.958
 3002SOL     OW 9061   4.927   2.727   3.266
 3002SOL    HW1 9062   4.952   2.813   3.232
 3002SOL    HW2 9063   4.833   2.734   3.282
 3003SOL     OW 9064   1.562   4.456   3.610
 3003SOL    HW1 9065   1.636   4.501   3.569
 3003SOL    HW2 9066   1.491   4.520   3.609
 3004SOL     OW 9067   4.559   2.941   2.586
 3004SOL    HW1 9068   4.527   2.860   2.547
 3004SOL    HW2 9069   4.647   2.920   2.617
 3005SOL     OW 9070   1.066   4.494   0.300
 3005SOL    HW1 9071   1.111   4.563   0.349
 3005SOL    HW2 9072   1.093   4.413   0.343
 3006SOL     OW 9073   2.763   3.463   3.594
 3006SOL    HW1 9074   2.774   3.551   3.559
 3006SOL    HW2 9075   2.842   3.448   3.647
 3007SOL     OW 9076   1.389   0.561   3.171
 3007SOL    HW1 9077   1.415   0.516   3.091
 3007SOL    HW2 9078   1.465   0.554   3.228
 3008SOL     OW 9079   1.485   1.126   2.231
 3008SOL    HW1 9080   1.575   1.103   2.209
 3008SOL    HW2 9081   1.451   1.049   2.278
 3009SOL     OW 9082   2.256   2.906   2.332
 3009SOL    HW1 9083   2.306   2.924   2.252
 3009SOL    HW2 9084   2.321   2.873   2.394
 3010SOL     OW 9085   3.477   2.748   3.167
 3010SOL    HW1 9086   3.571   2.732   3.176
 3010SOL    HW2 9087   3.461   2.827   3.220
 3011SOL     OW 9088   4.603   1.458   3.086
 3011SOL    HW1 9089   4.634   1.525   3.147
 3011SOL    HW2 9090   4.642   1.376   3.117
 3012SOL     OW 9091   1.800   2.396   1.335
 3012SOL    HW1 9092   1.725   2.433   1.382
 3012SOL    HW2 9093   1.868   2.463   1.342
 3013SOL     OW 9094   0.733   0.097   1.809
 3013SOL    HW1 9095   0.641   0.073   1.823
 3013SOL    HW2 9096   0.737   0.119   1.716
 3014SOL     OW 9097   0.361   4.008   1.627
 3014SOL    HW1 9098   0.360   3.994   1.532
 3014SOL    HW2 9099   0.366   3.919   1.664
 3015SOL     OW 9100   0.778   4.960   1.162
 3015SOL    HW1 9101   0.736   4.924   1.084
 3015SOL    HW2 9102   0.779   0.088   1.148
 3016SOL     OW 9103   4.252   0.402   3.139
 3016SOL    HW1 9104   4.204   0.324   3.167
 3016SOL    HW2 9105   4.300   0.374   3.061
 3017SOL     OW 9106   1.660   2.814   3.482
 3017SOL    HW1 9107   1.711   2.740   3.516
 3017SOL    HW2 9108   1.595   2.832   3.550
 3018SOL     OW 9109   0.342   1.798   2.387
 3018SOL    HW1 9110   0.397   1.816   2.463
 3018SOL    HW2 9111   0.346   1.703   2.376
 3019SOL     OW 9112   3.093   0.424   0.688
 3019SOL    HW1 9113   3.067   0.485   0.620
 3019SOL    HW2 9114   3.117   0.479   0.763
 3020SOL     OW 9115   3.913   1.347   2.041
 3020SOL    HW1 9116   3.971   1.374   1.969
 3020SOL    HW2 9117   3.971   1.333   2.115
 3021SOL     OW 9118   4.122   2.042   0.543
 3021SOL    HW1 9119   4.163   2.100   0.607
 3021SOL    HW2 9120   4.158   2.070   0.459
 3022SOL     OW 9121   4.486   1.954   1.731
 3022SOL    HW1 9122   4.463   2.033   1.781
 3022SOL    HW2 9123   4.581   1.947   1.740
 3023SOL     OW 9124   0.415   1.756   1.705
 3023SOL    HW1 9125   0.415   1.691   1.775
 3023SOL    HW2 9126   0.442   1.707   1.627
 3024SOL     OW 9127   0.582   1.314   4.135
 3024SOL    HW1 9128   0.563   1.315   4.041
 3024SOL    HW2 9129   0.522   1.249   4.171
 3025SOL     OW 9130   1.322   2.053   0.295
 3025SOL    HW1 9131   1.309   1.998   0.217
 3025SOL    HW2 9132   1.366   1.996   0.357
 3026SOL     OW 9133   3.171   0.058   1.731
 3026SOL    HW1 9134   3.228   0.103   1.669
 3026SOL    HW2 9135   3.082   0.070   1.697
 3027SOL     OW 9136   0.081   1.461   0.021
 3027SOL    HW1 9137   0.029   1.541   0.029
 3027SOL    HW2 9138   0.170   1.492   0.003
 3028SOL     OW 9139   3.610   2.606   0.613
 3028SOL    HW1 9140   3.662   2.579   0.688
 3028SOL    HW2 9141   3.529   2.639   0.650
 3029SOL     OW 9142   4.288   3.507   3.541
 3029SOL    HW1 9143   4.359   3.567   3.516
 3029SOL    HW2 9144   4.209   3.560   3.535
 3030SOL     OW 9145   3.770   1.418   1.536
 3030SOL    HW1 9146   3.803   1.416   1.446
 3030SOL    HW2 9147   3.727   1.334   1.548
 3031SOL     OW 9148   0.865   3.048   0.749
 3031SOL    HW1 9149   0.825   3.085   0.828
 3031SOL    HW2 9150   0.958   3.041   0.771
 3032SOL     OW 9151   2.242   3.128   3.928
 3032SOL    HW1 9152   2.308   3.093   3.868
 3032SOL    HW2 9153   2.263   3.221   3.935
 3033SOL     OW 9154   3.228   0.776   3.875
 3033SOL    HW1 9155   3.184   0.769   3.961
 3033SOL    HW2 9156   3.233   0.871   3.860
 3034SOL     OW 9157   3.233   4.227   2.800
 3034SOL    HW1 9158   3.257   4.139   2.773
 3034SOL    HW2 9159   3.159   4.215   2.860
 3035SOL     OW 9160   0.257   1.180   3.248
 3035SOL    HW1 9161   0.289   1.118   3.313
 3035SOL    HW2 9162   0.239   1.260   3.298
 3036SOL     OW 9163   2.108   4.826   0.805
 3036SOL    HW1 9164   2.023   4.790   0.780
 3036SOL    HW2 9165   2.091   4.879   0.883
 3037SOL     OW 9166   3.705   4.396   4.927
 3037SOL    HW1 9167   3.631   4.448   4.960
 3037SOL    HW2 9168   3.705   4.318   0.016
 3038SOL     OW 9169   2.668   2.508   0.302
 3038SOL    HW1 9170   2.738   2.515   0.368
 3038SOL    HW2 9171   2.592   2.479   0.352
 3039SOL     OW 9172   3.398   2.824   2.148
 3039SOL    HW1 9173   3.440   2.901   2.186
 3039SOL    HW2 9174   3.461   2.792   2.083
 3040SOL     OW 9175   0.026   2.583   0.109
 3040SOL    HW1 9176   4.917   2.528   0.090
 3040SOL    HW2 9177   0.029   2.646   0.037
 3041SOL     OW 9178   4.071   1.672   1.907
 3041SOL    HW1 9179   4.127   1.598   1.930
 3041SOL    HW2 9180   4.007   1.636   1.846
 3042SOL     OW 9181   2.060   2.658   2.352
 3042SOL    HW1 9182   2.104   2.743   2.361
 3042SOL    HW2 9183   2.016   2.645   2.436
 3043SOL     OW 9184   4.294   0.067   4.794
 3043SOL    HW1 9185   4.288   0.162   4.800
 3043SOL    HW2 9186   4.363   0.043   4.855
 3044SOL     OW 9187   1.568   4.198   3.472
 3044SOL    HW1 9188   1.573   4.292   3.487
 3044SOL    HW2 9189   1.615   4.159   3.546
 3045SOL     OW 9190   1.189   1.756   1.742
 3045SOL    HW1 9191   1.121   1.791   1.800
 3045SOL    HW2 9192   1.187   1.812   1.665
 3046SOL     OW 9193   3.369   1.718   2.157
 3046SOL    HW1 9194   3.357   1.629   2.192
 3046SOL    HW2 9195   3.410   1.766   2.229
 3047SOL     OW 9196   0.959   4.241   1.941
 3047SOL    HW1 9197   1.026   4.241   1.873
 3047SOL    HW2 9198   0.889   4.297   1.906
 3048SOL     OW 9199   3.597   1.133   0.808
 3048SOL    HW1 9200   3.520   1.169   0.851
 3048SOL    HW2 9201   3.572   1.125   0.716
 3049SOL     OW 9202   4.508   3.179   3.834
 3049SOL    HW1 9203   4.440   3.181   3.901
 3049SOL    HW2 9204   4.570   3.247   3.860
 3050SOL     OW 9205   0.769   4.759   3.368
 3050SOL    HW1 9206   0.810   4.696   3.428
 3050SOL    HW2 9207   0.839   4.821   3.346
 3051SOL     OW 9208   4.560   1.312   4.332
 3051SOL    HW1 9209   4.538   1.296   4.424
 3051SOL    HW2 9210   4.477   1.302   4.285
 3052SOL     OW 9211   4.575   1.238   2.145
 3052SOL    HW1 9212   4.601   1.298   2.076
 3052SOL    HW2 9213   4.481   1.225   2.132
 3053SOL     OW 9214   3.196   2.503   0.503
 3053SOL    HW1 9215   3.225   2.430   0.448
 3053SOL    HW2 9216   3.266   2.568   0.495
 3054SOL     OW 9217   4.099   2.703   3.386
 3054SOL    HW1 9218   4.037   2.632   3.377
 3054SOL    HW2 9219   4.128   2.722   3.297
 3055SOL     OW 9220   4.001   3.607   0.656
 3055SOL    HW1 9221   4.035   3.632   0.741
 3055SOL    HW2 9222   3.906   3.603   0.668
 3056SOL     OW 9223   2.863   1.762   1.266
 3056SOL    HW1 9224   2.775   1.727   1.256
 3056SOL    HW2 9225   2.914   1.720   1.197
 3057SOL     OW 9226   3.883   0.270   3.163
 3057SOL    HW1 9227   3.883   0.212   3.087
 3057SOL    HW2 9228   3.795   0.264   3.199
 3058SOL     OW 9229   1.923   1.685   1.542
 3058SOL    HW1 9230   1.930   1.708   1.635
 3058SOL    HW2 9231   1.876   1.758   1.502
 3059SOL     OW 9232   0.887   2.542   1.930
 3059SOL    HW1 9233   0.958   2.606   1.932
 3059SOL    HW2 9234   0.856   2.542   1.840
 3060SOL     OW 9235   3.077   1.271   3.962
 3060SOL    HW1 9236   3.041   1.359   3.954
 3060SOL    HW2 9237   3.168   1.279   3.934
 3061SOL     OW 9238   3.003   3.408   2.452
 3061SOL    HW1 9239   3.090   3.367   2.461
 3061SOL    HW2 9240   3.015   3.473   2.383
 3062SOL     OW 9241   0.668   0.784   4.458
 3062SOL    HW1 9242   0.706   0.844   4.522
 3062SOL    HW2 9243   0.598   0.740   4.506
 3063SOL     OW 9244   3.351   4.366   3.369
 3063SOL    HW1 9245   3.287   4.342   3.302
 3063SOL    HW2 9246   3.422   4.407   3.321
 3064SOL     OW 9247   1.058   4.128   1.332
 3064SOL    HW1 9248   1.079   4.201   1.273
 3064SOL    HW2 9249   1.129   4.129   1.396
 3065SOL     OW 9250   0.203   3.111   3.120
 3065SOL    HW1 9251   0.186   3.149   3.206
 3065SOL    HW2 9252   0.116   3.097   3.083
 3066SOL     OW 9253   4.281   4.783   0.739
 3066SOL    HW1 9254   4.352   4.787   0.675
 3066SOL    HW2 9255   4.229   4.861   0.722
 3067SOL     OW 9256   2.943   2.447   0.147
 3067SOL    HW1 9257   2.951   2.383   0.218
 3067SOL    HW2 9258   2.858   2.429   0.108
 3068SOL     OW 9259   4.535   4.165   2.575
 3068SOL    HW1 9260   4.613   4.110   2.578
 3068SOL    HW2 9261   4.487   4.135   2.498
 3069SOL     OW 9262   0.789   1.216   3.779
 3069SOL    HW1 9263   0.779   1.145   3.842
 3069SOL    HW2 9264   0.883   1.233   3.776
 3070SOL     OW 9265   1.534   0.447   2.586
 3070SOL    HW1 9266   1.495   0.530   2.557
 3070SOL    HW2 9267   1.573   0.410   2.508
 3071SOL     OW 9268   1.820   4.177   4.387
 3071SOL    HW1 9269   1.884   4.175   4.457
 3071SOL    HW2 9270   1.740   4.212   4.427
 3072SOL     OW 9271   1.797   0.434   1.527
 3072SOL    HW1 9272   1.738   0.360   1.545
 3072SOL    HW2 9273   1.875   0.395   1.489
 3073SOL     OW 9274   2.386   2.083   4.097
 3073SOL    HW1 9275   2.454   2.016   4.106
 3073SOL    HW2 9276   2.312   2.036   4.058
 3074SOL     OW 9277   1.142   1.828   2.713
 3074SOL    HW1 9278   1.059   1.795   2.681
 3074SOL    HW2 9279   1.188   1.750   2.745
 3075SOL     OW 9280   0.449   0.974   1.670
 3075SOL    HW1 9281   0.400   0.932   1.600
 3075SOL    HW2 9282   0.523   1.017   1.626
 3076SOL     OW 9283   1.490   2.077   1.909
 3076SOL    HW1 9284   1.541   2.098   1.987
 3076SOL    HW2 9285   1.536   2.120   1.837
 3077SOL     OW 9286   0.246   2.483   2.302
 3077SOL    HW1 9287   0.188   2.527   2.364
 3077SOL    HW2 9288   0.332   2.488   2.343
 3078SOL     OW 9289   2.296   2.165   1.413
 3078SOL    HW1 9290   2.329   2.167   1.502
 3078SOL    HW2 9291   2.372   2.142   1.359
 3079SOL     OW 9292   2.375   4.362   4.818
 3079SOL    HW1 9293   2.402   4.379   4.909
 3079SOL    HW2 9294   2.409   4.436   4.769
 3080SOL     OW 9295   3.109   0.839   1.308
 3080SOL    HW1 9296   3.061   0.909   1.263
 3080SOL    HW2 9297   3.043   0.772   1.327
 3081SOL     OW 9298   3.938   3.062   3.924
 3081SOL    HW1 9299   3.853   3.023   3.902
 3081SOL    HW2 9300   3.981   3.075   3.840
 3082SOL     OW 9301   0.517   4.097   2.714
 3082SOL    HW1 9302   0.560   4.102   2.800
 3082SOL    HW2 9303   0.489   4.187   2.696
 3083SOL     OW 9304   0.244   0.778   4.082
 3083SOL    HW1 9305   0.325   0.727   4.087
 3083SOL    HW2 9306   0.207   0.756   3.996
 3084SOL     OW 9307   4.247   4.897   2.561
 3084SOL    HW1 9308   4.314   4.871   2.624
 3084SOL    HW2 9309   4.247   4.827   2.496
 3085SOL     OW 9310   3.675   3.274   2.443
 3085SOL    HW1 9311   3.587   3.239   2.457
 3085SOL    HW2 9312   3.727   3.235   2.513
 3086SOL     OW 9313   4.152   4.533   2.181
 3086SOL    HW1 9314   4.211   4.457   2.179
 3086SOL    HW2 9315   4.076   4.507   2.130
 3087SOL     OW 9316   4.232   4.940   1.775
 3087SOL    HW1 9317   4.301   4.874   1.781
 3087SOL    HW2 9318   4.152   4.890   1.758
 3088SOL     OW 9319   4.322   0.344   2.877
 3088SOL    HW1 9320   4.360   0.432   2.880
 3088SOL    HW2 9321   4.375   0.297   2.813
 3089SOL     OW 9322   3.887   3.636   1.462
 3089SOL    HW1 9323   3.878   3.638   1.367
 3089SOL    HW2 9324   3.969   3.682   1.480
 3090SOL     OW 9325   2.466   1.726   0.903
 3090SOL    HW1 9326   2.527   1.797   0.881
 3090SOL    HW2 9327   2.434   1.748   0.990
 3091SOL     OW 9328   1.015   1.462   1.424
 3091SOL    HW1 9329   1.097   1.483   1.381
 3091SOL    HW2 9330   0.966   1.545   1.424
 3092SOL     OW 9331   2.749   0.442   1.374
 3092SOL    HW1 9332   2.698   0.366   1.400
 3092SOL    HW2 9333   2.741   0.446   1.279
 3093SOL     OW 9334   1.106   4.010   2.690
 3093SOL    HW1 9335   1.164   4.081   2.719
 3093SOL    HW2 9336   1.163   3.951   2.640
 3094SOL     OW 9337   1.339   1.419   4.141
 3094SOL    HW1 9338   1.291   1.347   4.101
 3094SOL    HW2 9339   1.422   1.422   4.094
 3095SOL     OW 9340   3.495   0.790   1.532
 3095SOL    HW1 9341   3.453   0.864   1.488
 3095SOL    HW2 9342   3.539   0.742   1.462
 3096SOL     OW 9343   1.758   0.070   1.685
 3096SOL    HW1 9344   1.714   0.131   1.745
 3096SOL    HW2 9345   1.838   0.044   1.731
 3097SOL     OW 9346   4.464   0.212   3.905
 3097SOL    HW1 9347   4.396   0.275   3.883
 3097SOL    HW2 9348   4.416   0.131   3.924
 3098SOL     OW 9349   3.313   4.065   1.709
 3098SOL    HW1 9350   3.345   3.978   1.734
 3098SOL    HW2 9351   3.318   4.065   1.613
 3099SOL     OW 9352   0.035   1.314   0.314
 3099SOL    HW1 9353   0.099   1.325   0.244
 3099SOL    HW2 9354   0.003   1.224   0.303
 3100SOL     OW 9355   2.812   4.088   1.754
 3100SOL    HW1 9356   2.902   4.068   1.778
 3100SOL    HW2 9357   2.802   4.053   1.665
 3101SOL     OW 9358   4.084   0.126   4.103
 3101SOL    HW1 9359   4.053   0.176   4.028
 3101SOL    HW2 9360   4.140   0.187   4.151
 3102SOL     OW 9361   1.172   3.518   0.243
 3102SOL    HW1 9362   1.189   3.605   0.280
 3102SOL    HW2 9363   1.077   3.515   0.234
 3103SOL     OW 9364   3.993   2.851   2.299
 3103SOL    HW1 9365   3.987   2.901   2.217
 3103SOL    HW2 9366   3.939   2.900   2.360
 3104SOL     OW 9367   1.585   4.821   1.020
 3104SOL    HW1 9368   1.533   4.747   1.051
 3104SOL    HW2 9369   1.624   4.858   1.099
 3105SOL     OW 9370   4.780   3.860   0.491
 3105SOL    HW1 9371   4.733   3.930   0.446
 3105SOL    HW2 9372   4.861   3.850   0.440
 3106SOL     OW 9373   0.063   1.421   3.965
 3106SOL    HW1 9374   0.109   1.418   3.881
 3106SOL    HW2 9375   4.961   1.487   3.953
 3107SOL     OW 9376   3.745   1.083   2.081
 3107SOL    HW1 9377   3.713   0.994   2.068
 3107SOL    HW2 9378   3.669   1.139   2.060
 3108SOL     OW 9379   1.274   3.989   1.706
 3108SOL    HW1 9380   1.201   3.935   1.736
 3108SOL    HW2 9381   1.284   4.056   1.773
 3109SOL     OW 9382   1.904   3.847   2.299
 3109SOL    HW1 9383   1.944   3.762   2.319
 3109SOL    HW2 9384   1.879   3.882   2.384
 3110SOL     OW 9385   0.592   0.681   1.354
 3110SOL    HW1 9386   0.620   0.603   1.305
 3110SOL    HW2 9387   0.591   0.652   1.445
 3111SOL     OW 9388   4.826   0.792   3.098
 3111SOL    HW1 9389   4.912   0.755   3.078
 3111SOL    HW2 9390   4.845   0.876   3.139
 3112SOL     OW 9391   2.483   0.405   4.773
 3112SOL    HW1 9392   2.511   0.355   4.851
 3112SOL    HW2 9393   2.563   0.451   4.746
 3113SOL     OW 9394   4.881   2.639   2.460
 3113SOL    HW1 9395   4.927   2.686   2.390
 3113SOL    HW2 9396   4.940   2.567   2.483
 3114SOL     OW 9397   4.205   2.447   2.126
 3114SOL    HW1 9398   4.191   2.355   2.103
 3114SOL    HW2 9399   4.122   2.490   2.107
 3115SOL     OW 9400   0.518   1.705   0.160
 3115SOL    HW1 9401   0.512   1.750   0.076
 3115SOL    HW2 9402   0.530   1.776   0.224
 3116SOL     OW 9403   3.489   1.047   0.564
 3116SOL    HW1 9404   3.513   0.956   0.583
 3116SOL    HW2 9405   3.402   1.041   0.525
 3117SOL     OW 9406   2.557   4.228   0.645
 3117SOL    HW1 9407   2.549   4.247   0.738
 3117SOL    HW2 9408   2.652   4.224   0.629
 3118SOL     OW 9409   0.139   0.028   1.814
 3118SOL    HW1 9410   0.233   0.036   1.831
 3118SOL    HW2 9411   0.132   4.923   1.751
 3119SOL     OW 9412   4.832   0.245   0.513
 3119SOL    HW1 9413   4.846   0.193   0.593
 3119SOL    HW2 9414   4.842   0.181   0.442
 3120SOL     OW 9415   3.929   3.564   1.198
 3120SOL    HW1 9416   3.865   3.572   1.127
 3120SOL    HW2 9417   4.013   3.580   1.156
 3121SOL     OW 9418   2.700   3.616   3.971
 3121SOL    HW1 9419   2.676   3.670   3.896
 3121SOL    HW2 9420   2.629   3.552   3.979
 3122SOL     OW 9421   4.576   1.751   3.109
 3122SOL    HW1 9422   4.599   1.842   3.127
 3122SOL    HW2 9423   4.481   1.752   3.096
 3123SOL     OW 9424   2.581   3.537   1.588
 3123SOL    HW1 9425   2.579   3.494   1.503
 3123SOL    HW2 9426   2.671   3.526   1.619
 3124SOL     OW 9427   0.039   1.104   0.727
 3124SOL    HW1 9428   4.924   1.078   0.770
 3124SOL    HW2 9429   0.106   1.091   0.793
 3125SOL     OW 9430   4.614   2.961   0.576
 3125SOL    HW1 9431   4.552   2.893   0.552
 3125SOL    HW2 9432   4.700   2.920   0.568
 3126SOL     OW 9433   1.746   4.526   2.396
 3126SOL    HW1 9434   1.677   4.468   2.364
 3126SOL    HW2 9435   1.820   4.469   2.412
 3127SOL     OW 9436   2.785   2.904   3.777
 3127SOL    HW1 9437   2.830   2.986   3.759
 3127SOL    HW2 9438   2.724   2.925   3.847
 3128SOL     OW 9439   0.226   4.122   3.827
 3128SOL    HW1 9440   0.177   4.093   3.904
 3128SOL    HW2 9441   0.315   4.092   3.843
 3129SOL     OW 9442   0.097   0.621   3.039
 3129SOL    HW1 9443   0.175   0.570   3.063
 3129SOL    HW2 9444   0.028   0.587   3.095
 3130SOL     OW 9445   0.539   1.376   2.957
 3130SOL    HW1 9446   0.458   1.377   3.008
 3130SOL    HW2 9447   0.509   1.382   2.866
 3131SOL     OW 9448   0.978   1.738   4.730
 3131SOL    HW1 9449   0.922   1.728   4.653
 3131SOL    HW2 9450   1.063   1.762   4.694
 3132SOL     OW 9451   4.437   4.826   2.729
 3132SOL    HW1 9452   4.398   4.740   2.712
 3132SOL    HW2 9453   4.484   4.815   2.811
 3133SOL     OW 9454   2.673   3.077   4.568
 3133SOL    HW1 9455   2.735   3.104   4.635
 3133SOL    HW2 9456   2.615   3.014   4.611
 3134SOL     OW 9457   3.436   3.824   1.684
 3134SOL    HW1 9458   3.458   3.732   1.668
 3134SOL    HW2 9459   3.487   3.848   1.761
 3135SOL     OW 9460   3.355   1.406   1.883
 3135SOL    HW1 9461   3.418   1.446   1.824
 3135SOL    HW2 9462   3.293   1.361   1.826
 3136SOL     OW 9463   1.571   2.600   3.941
 3136SOL    HW1 9464   1.594   2.690   3.961
 3136SOL    HW2 9465   1.623   2.579   3.863
 3137SOL     OW 9466   3.079   3.081   1.938
 3137SOL    HW1 9467   3.113   3.162   1.976
 3137SOL    HW2 9468   3.090   3.015   2.006
 3138SOL     OW 9469   2.892   3.399   1.228
 3138SOL    HW1 9470   2.912   3.473   1.170
 3138SOL    HW2 9471   2.977   3.377   1.267
 3139SOL     OW 9472   1.056   1.782   3.277
 3139SOL    HW1 9473   1.030   1.843   3.209
 3139SOL    HW2 9474   0.975   1.738   3.302
 3140SOL     OW 9475   2.562   1.306   2.825
 3140SOL    HW1 9476   2.561   1.391   2.869
 3140SOL    HW2 9477   2.480   1.303   2.775
 3141SOL     OW 9478   3.852   0.224   0.785
 3141SOL    HW1 9479   3.892   0.184   0.708
 3141SOL    HW2 9480   3.779   0.166   0.807
 3142SOL     OW 9481   3.898   0.999   2.291
 3142SOL    HW1 9482   3.835   1.035   2.229
 3142SOL    HW2 9483   3.900   0.905   2.272
 3143SOL     OW 9484   2.474   0.131   3.504
 3143SOL    HW1 9485   2.495   0.225   3.506
 3143SOL    HW2 9486   2.560   0.088   3.506
 3144SOL     OW 9487   2.211   1.260   0.249
 3144SOL    HW1 9488   2.306   1.271   0.259
 3144SOL    HW2 9489   2.192   1.297   0.163
 3145SOL     OW 9490   3.952   1.749   4.041
 3145SOL    HW1 9491   3.858   1.741   4.025
 3145SOL    HW2 9492   3.980   1.819   3.982
 3146SOL     OW 9493   4.764   3.463   1.044
 3146SOL    HW1 9494   4.698   3.508   0.991
 3146SOL    HW2 9495   4.785   3.384   0.993
 3147SOL     OW 9496   1.677   0.711   4.485
 3147SOL    HW1 9497   1.702   0.642   4.546
 3147SOL    HW2 9498   1.760   0.741   4.447
 3148SOL     OW 9499   0.311   4.546   0.521
 3148SOL    HW1 9500   0.257   4.560   0.443
 3148SOL    HW2 9501   0.298   4.624   0.574
 3149SOL     OW 9502   4.831   4.539   0.417
 3149SOL    HW1 9503   4.787   4.621   0.437
 3149SOL    HW2 9504   4.922   4.553   0.444
 3150SOL     OW 9505   4.075   2.045   0.077
 3150SOL    HW1 9506   4.007   1.979   0.091
 3150SOL    HW2 9507   4.030   2.119   0.036
 3151SOL     OW 9508   3.078   2.615   2.074
 3151SOL    HW1 9509   3.165   2.603   2.111
 3151SOL    HW2 9510   3.039   2.527   2.075
 3152SOL     OW 9511   2.442   4.470   2.067
 3152SOL    HW1 9512   2.471   4.557   2.039
 3152SOL    HW2 9513   2.508   4.442   2.131
 3153SOL     OW 9514   1.484   2.272   0.012
 3153SOL    HW1 9515   1.429   2.329   0.066
 3153SOL    HW2 9516   1.536   2.223   0.076
 3154SOL     OW 9517   1.436   0.129   2.073
 3154SOL    HW1 9518   1.393   0.205   2.035
 3154SOL    HW2 9519   1.374   0.095   2.137
 3155SOL     OW 9520   4.501   0.639   0.764
 3155SOL    HW1 9521   4.436   0.701   0.730
 3155SOL    HW2 9522   4.525   0.674   0.850
 3156SOL     OW 9523   2.358   4.561   3.830
 3156SOL    HW1 9524   2.323   4.488   3.779
 3156SOL    HW2 9525   2.412   4.519   3.898
 3157SOL     OW 9526   2.834   1.943   3.453
 3157SOL    HW1 9527   2.777   1.988   3.516
 3157SOL    HW2 9528   2.798   1.967   3.367
 3158SOL     OW 9529   1.378   1.205   0.860
 3158SOL    HW1 9530   1.456   1.152   0.876
 3158SOL    HW2 9531   1.366   1.255   0.941
 3159SOL     OW 9532   2.643   4.954   2.229
 3159SOL    HW1 9533   2.675   4.882   2.174
 3159SOL    HW2 9534   2.587   4.911   2.293
 3160SOL     OW 9535   1.878   4.500   2.055
 3160SOL    HW1 9536   1.854   4.552   2.132
 3160SOL    HW2 9537   1.972   4.512   2.047
 3161SOL     OW 9538   2.213   0.747   2.844
 3161SOL    HW1 9539   2.234   0.656   2.820
 3161SOL    HW2 9540   2.123   0.743   2.875
 3162SOL     OW 9541   3.064   4.561   3.625
 3162SOL    HW1 9542   3.053   4.470   3.595
 3162SOL    HW2 9543   3.100   4.607   3.549
 3163SOL     OW 9544   1.679   2.228   4.449
 3163SOL    HW1 9545   1.703   2.194   4.363
 3163SOL    HW2 9546   1.591   2.265   4.437
 3164SOL     OW 9547   2.610   0.635   3.008
 3164SOL    HW1 9548   2.530   0.584   2.990
 3164SOL    HW2 9549   2.671   0.572   3.046
 3165SOL     OW 9550   2.199   4.784   4.316
 3165SOL    HW1 9551   2.196   4.878   4.297
 3165SOL    HW2 9552   2.115   4.766   4.359
 3166SOL     OW 9553   1.308   0.958   1.888
 3166SOL    HW1 9554   1.364   1.019   1.840
 3166SOL    HW2 9555   1.220   0.992   1.877
 3167SOL     OW 9556   2.491   1.841   1.690
 3167SOL    HW1 9557   2.473   1.885   1.607
 3167SOL    HW2 9558   2.522   1.911   1.748
 3168SOL     OW 9559   3.073   4.060   0.053
 3168SOL    HW1 9560   3.159   4.019   0.053
 3168SOL    HW2 9561   3.057   4.082   4.928
 3169SOL     OW 9562   4.636   2.601   0.586
 3169SOL    HW1 9563   4.705   2.661   0.557
 3169SOL    HW2 9564   4.556   2.653   0.582
 3170SOL     OW 9565   3.938   0.796   0.349
 3170SOL    HW1 9566   3.879   0.727   0.381
 3170SOL    HW2 9567   3.984   0.755   0.275
 3171SOL     OW 9568   4.166   0.465   3.478
 3171SOL    HW1 9569   4.146   0.521   3.554
 3171SOL    HW2 9570   4.110   0.498   3.408
 3172SOL     OW 9571   3.736   3.783   1.040
 3172SOL    HW1 9572   3.667   3.847   1.058
 3172SOL    HW2 9573   3.772   3.808   0.955
 3173SOL     OW 9574   3.726   2.332   0.395
 3173SOL    HW1 9575   3.730   2.424   0.421
 3173SOL    HW2 9576   3.718   2.334   0.299
 3174SOL     OW 9577   3.808   1.334   3.133
 3174SOL    HW1 9578   3.801   1.359   3.225
 3174SOL    HW2 9579   3.827   1.240   3.134
 3175SOL     OW 9580   1.652   3.278   4.446
 3175SOL    HW1 9581   1.560   3.253   4.458
 3175SOL    HW2 9582   1.692   3.202   4.404
 3176SOL     OW 9583   4.525   2.451   1.173
 3176SOL    HW1 9584   4.600   2.489   1.127
 3176SOL    HW2 9585   4.563   2.385   1.231
 3177SOL     OW 9586   0.428   1.957   4.583
 3177SOL    HW1 9587   0.382   1.955   4.667
 3177SOL    HW2 9588   0.493   2.027   4.593
 3178SOL     OW 9589   1.124   3.684   0.787
 3178SOL    HW1 9590   1.152   3.630   0.861
 3178SOL    HW2 9591   1.194   3.747   0.775
 3179SOL     OW 9592   4.552   4.432   0.646
 3179SOL    HW1 9593   4.628   4.376   0.658
 3179SOL    HW2 9594   4.556   4.459   0.554
 3180SOL     OW 9595   4.497   3.132   0.294
 3180SOL    HW1 9596   4.471   3.169   0.379
 3180SOL    HW2 9597   4.416   3.101   0.255
 3181SOL     OW 9598   4.846   4.949   2.968
 3181SOL    HW1 9599   4.858   4.860   3.001
 3181SOL    HW2 9600   4.932   0.008   2.935
 3182SOL     OW 9601   4.890   1.180   3.982
 3182SOL    HW1 9602   4.815   1.218   4.028
 3182SOL    HW2 9603   4.958   1.247   3.986
 3183SOL     OW 9604   0.992   1.180   1.361
 3183SOL    HW1 9605   0.975   1.167   1.268
 3183SOL    HW2 9606   0.999   1.275   1.371
 3184SOL     OW 9607   3.276   4.245   0.190
 3184SOL    HW1 9608   3.360   4.221   0.152
 3184SOL    HW2 9609   3.211   4.207   0.131
 3185SOL     OW 9610   1.807   1.280   4.155
 3185SOL    HW1 9611   1.718   1.316   4.156
 3185SOL    HW2 9612   1.859   1.345   4.203
 3186SOL     OW 9613   3.451   0.440   2.161
 3186SOL    HW1 9614   3.373   0.486   2.129
 3186SOL    HW2 9615   3.440   0.435   2.256
 3187SOL     OW 9616   2.056   1.961   3.496
 3187SOL    HW1 9617   1.971   1.941   3.458
 3187SOL    HW2 9618   2.106   2.001   3.425
 3188SOL     OW 9619   4.179   4.853   1.475
 3188SOL    HW1 9620   4.185   4.830   1.383
 3188SOL    HW2 9621   4.112   4.921   1.479
 3189SOL     OW 9622   1.376   0.387   1.949
 3189SOL    HW1 9623   1.423   0.464   1.982
 3189SOL    HW2 9624   1.290   0.420   1.923
 3190SOL     OW 9625   3.237   3.133   0.058
 3190SOL    HW1 9626   3.205   3.154   4.936
 3190SOL    HW2 9627   3.233   3.037   0.063
 3191SOL     OW 9628   4.731   2.952   0.172
 3191SOL    HW1 9629   4.649   3.000   0.185
 3191SOL    HW2 9630   4.737   2.939   0.078
 3192SOL     OW 9631   2.033   3.053   1.038
 3192SOL    HW1 9632   2.113   3.076   1.085
 3192SOL    HW2 9633   2.060   2.982   0.979
 3193SOL     OW 9634   2.231   1.542   1.842
 3193SOL    HW1 9635   2.274   1.471   1.795
 3193SOL    HW2 9636   2.142   1.510   1.858
 3194SOL     OW 9637   1.947   1.719   0.433
 3194SOL    HW1 9638   1.935   1.666   0.354
 3194SOL    HW2 9639   1.868   1.773   0.438
 3195SOL     OW 9640   3.765   2.107   2.962
 3195SOL    HW1 9641   3.789   2.103   2.869
 3195SOL    HW2 9642   3.848   2.103   3.009
 3196SOL     OW 9643   1.834   2.096   1.658
 3196SOL    HW1 9644   1.820   2.030   1.590
 3196SOL    HW2 9645   1.765   2.161   1.644
 3197SOL     OW 9646   4.716   3.749   4.422
 3197SOL    HW1 9647   4.649   3.723   4.485
 3197SOL    HW2 9648   4.744   3.667   4.381
 3198SOL     OW 9649   0.813   4.910   0.173
 3198SOL    HW1 9650   0.727   4.920   0.132
 3198SOL    HW2 9651   0.824   4.815   0.183
 3199SOL     OW 9652   1.762   4.276   0.656
 3199SOL    HW1 9653   1.725   4.326   0.728
 3199SOL    HW2 9654   1.856   4.291   0.662
 3200SOL     OW 9655   4.117   4.144   4.724
 3200SOL    HW1 9656   4.114   4.240   4.731
 3200SOL    HW2 9657   4.057   4.123   4.653
 3201SOL     OW 9658   2.903   1.162   1.538
 3201SOL    HW1 9659   2.827   1.220   1.533
 3201SOL    HW2 9660   2.960   1.191   1.467
 3202SOL     OW 9661   4.320   4.924   4.181
 3202SOL    HW1 9662   4.334   0.027   4.117
 3202SOL    HW2 9663   4.237   4.884   4.155
 3203SOL     OW 9664   4.852   3.771   2.737
 3203SOL    HW1 9665   4.946   3.789   2.734
 3203SOL    HW2 9666   4.837   3.740   2.826
 3204SOL     OW 9667   1.942   0.701   4.356
 3204SOL    HW1 9668   1.913   0.643   4.286
 3204SOL    HW2 9669   2.029   0.731   4.328
 3205SOL     OW 9670   3.505   3.544   2.022
 3205SOL    HW1 9671   3.594   3.576   2.038
 3205SOL    HW2 9672   3.448   3.615   2.054
 3206SOL     OW 9673   3.599   1.638   4.806
 3206SOL    HW1 9674   3.591   1.553   4.848
 3206SOL    HW2 9675   3.691   1.644   4.780
 3207SOL     OW 9676   0.462   3.782   1.896
 3207SOL    HW1 9677   0.391   3.833   1.933
 3207SOL    HW2 9678   0.531   3.846   1.879
 3208SOL     OW 9679   4.310   0.905   2.859
 3208SOL    HW1 9680   4.338   0.814   2.856
 3208SOL    HW2 9681   4.366   0.950   2.796
 3209SOL     OW 9682   4.426   1.214   1.577
 3209SOL    HW1 9683   4.348   1.159   1.565
 3209SOL    HW2 9684   4.391   1.302   1.587
 3210SOL     OW 9685   2.473   3.470   3.332
 3210SOL    HW1 9686   2.380   3.468   3.308
 3210SOL    HW2 9687   2.504   3.555   3.302
 3211SOL     OW 9688   0.728   1.528   2.651
 3211SOL    HW1 9689   0.711   1.551   2.742
 3211SOL    HW2 9690   0.779   1.601   2.617
 3212SOL     OW 9691   2.095   2.489   2.945
 3212SOL    HW1 9692   2.129   2.421   3.004
 3212SOL    HW2 9693   2.142   2.568   2.970
 3213SOL     OW 9694   2.187   2.497   4.917
 3213SOL    HW1 9695   2.222   2.582   4.943
 3213SOL    HW2 9696   2.241   2.433   4.964
 3214SOL     OW 9697   3.099   4.354   3.928
 3214SOL    HW1 9698   3.141   4.344   4.013
 3214SOL    HW2 9699   3.035   4.425   3.941
 3215SOL     OW 9700   2.355   3.156   0.478
 3215SOL    HW1 9701   2.295   3.090   0.442
 3215SOL    HW2 9702   2.310   3.240   0.463
 3216SOL     OW 9703   0.706   4.883   4.474
 3216SOL    HW1 9704   0.707   4.793   4.444
 3216SOL    HW2 9705   0.662   4.932   4.403
 3217SOL     OW 9706   0.819   1.787   1.169
 3217SOL    HW1 9707   0.826   1.839   1.089
 3217SOL    HW2 9708   0.901   1.803   1.216
 3218SOL     OW 9709   2.451   0.649   0.550
 3218SOL    HW1 9710   2.485   0.560   0.546
 3218SOL    HW2 9711   2.358   0.641   0.532
 3219SOL     OW 9712   4.149   0.955   0.404
 3219SOL    HW1 9713   4.061   0.917   0.409
 3219SOL    HW2 9714   4.156   0.986   0.314
 3220SOL     OW 9715   3.090   0.018   3.013
 3220SOL    HW1 9716   3.111   4.931   3.090
 3220SOL    HW2 9717   3.129   0.103   3.032
 3221SOL     OW 9718   2.488   3.695   4.703
 3221SOL    HW1 9719   2.503   3.630   4.771
 3221SOL    HW2 9720   2.412   3.745   4.734
 3222SOL     OW 9721   1.982   1.314   0.428
 3222SOL    HW1 9722   1.976   1.261   0.507
 3222SOL    HW2 9723   2.060   1.280   0.383
 3223SOL     OW 9724   0.974   2.927   3.743
 3223SOL    HW1 9725   0.912   2.999   3.748
 3223SOL    HW2 9726   0.981   2.895   3.834
 3224SOL     OW 9727   0.708   3.310   2.413
 3224SOL    HW1 9728   0.692   3.332   2.504
 3224SOL    HW2 9729   0.725   3.216   2.413
 3225SOL     OW 9730   4.687   4.136   3.328
 3225SOL    HW1 9731   4.655   4.047   3.344
 3225SOL    HW2 9732   4.629   4.171   3.261
 3226SOL     OW 9733   1.004   1.400   0.398
 3226SOL    HW1 9734   0.910   1.411   0.382
 3226SOL    HW2 9735   1.044   1.479   0.362
 3227SOL     OW 9736   2.770   4.196   4.358
 3227SOL    HW1 9737   2.776   4.283   4.397
 3227SOL    HW2 9738   2.857   4.157   4.373
 3228SOL     OW 9739   3.416   4.708   2.217
 3228SOL    HW1 9740   3.366   4.651   2.158
 3228SOL    HW2 9741   3.350   4.760   2.263
 3229SOL     OW 9742   0.031   1.052   4.220
 3229SOL    HW1 9743   0.060   1.099   4.299
 3229SOL    HW2 9744   0.009   1.121   4.158
 3230SOL     OW 9745   4.739   1.594   0.706
 3230SOL    HW1 9746   4.789   1.575   0.627
 3230SOL    HW2 9747   4.784   1.546   0.776
 3231SOL     OW 9748   4.240   2.103   0.296
 3231SOL    HW1 9749   4.331   2.079   0.283
 3231SOL    HW2 9750   4.192   2.054   0.229
 3232SOL     OW 9751   4.580   4.401   0.354
 3232SOL    HW1 9752   4.669   4.430   0.373
 3232SOL    HW2 9753   4.583   4.375   0.262
 3233SOL     OW 9754   4.115   1.413   3.375
 3233SOL    HW1 9755   4.173   1.407   3.299
 3233SOL    HW2 9756   4.167   1.458   3.441
 3234SOL     OW 9757   2.737   2.633   3.772
 3234SOL    HW1 9758   2.648   2.620   3.739
 3234SOL    HW2 9759   2.741   2.726   3.796
 3235SOL     OW 9760   3.078   4.747   4.808
 3235SOL    HW1 9761   3.173   4.736   4.815
 3235SOL    HW2 9762   3.065   4.789   4.723
 3236SOL     OW 9763   3.650   3.155   1.424
 3236SOL    HW1 9764   3.737   3.157   1.465
 3236SOL    HW2 9765   3.590   3.180   1.494
 3237SOL     OW 9766   0.916   4.471   3.138
 3237SOL    HW1 9767   0.912   4.376   3.126
 3237SOL    HW2 9768   0.838   4.504   3.093
 3238SOL     OW 9769   3.835   3.839   1.988
 3238SOL    HW1 9770   3.805   3.769   2.047
 3238SOL    HW2 9771   3.924   3.814   1.966
 3239SOL     OW 9772   2.486   4.161   1.633
 3239SOL    HW1 9773   2.545   4.235   1.619
 3239SOL    HW2 9774   2.524   4.113   1.707
 3240SOL     OW 9775   3.794   2.479   4.721
 3240SOL    HW1 9776   3.771   2.527   4.800
 3240SOL    HW2 9777   3.736   2.515   4.654
 3241SOL     OW 9778   1.013   2.054   1.482
 3241SOL    HW1 9779   1.099   2.075   1.518
 3241SOL    HW2 9780   1.030   2.026   1.392
 3242SOL     OW 9781   3.608   4.765   0.818
 3242SOL    HW1 9782   3.573   4.748   0.730
 3242SOL    HW2 9783   3.640   4.855   0.814
 3243SOL     OW 9784   2.832   3.204   4.107
 3243SOL    HW1 9785   2.738   3.218   4.101
 3243SOL    HW2 9786   2.841   3.127   4.163
 3244SOL     OW 9787   4.939   4.753   2.253
 3244SOL    HW1 9788   0.042   4.763   2.318
 3244SOL    HW2 9789   0.005   4.801   2.177
 3245SOL     OW 9790   1.615   4.810   0.749
 3245SOL    HW1 9791   1.526   4.837   0.725
 3245SOL    HW2 9792   1.615   4.815   0.845
 3246SOL     OW 9793   2.247   2.055   2.969
 3246SOL    HW1 9794   2.228   2.144   3.001
 3246SOL    HW2 9795   2.342   2.054   2.957
 3247SOL     OW 9796   0.525   3.009   1.384
 3247SOL    HW1 9797   0.448   3.052   1.347
 3247SOL    HW2 9798   0.593   3.076   1.382
 3248SOL     OW 9799   3.726   1.302   2.672
 3248SOL    HW1 9800   3.637   1.335   2.687
 3248SOL    HW2 9801   3.745   1.325   2.581
 3249SOL     OW 9802   3.737   4.588   4.749
 3249SOL    HW1 9803   3.718   4.561   4.659
 3249SOL    HW2 9804   3.702   4.517   4.803
 3250SOL     OW 9805   1.162   2.985   0.739
 3250SOL    HW1 9806   1.217   3.054   0.774
 3250SOL    HW2 9807   1.193   2.905   0.782
 3251SOL     OW 9808   3.830   3.356   2.231
 3251SOL    HW1 9809   3.914   3.355   2.276
 3251SOL    HW2 9810   3.767   3.326   2.296
 3252SOL     OW 9811   1.178   1.026   2.585
 3252SOL    HW1 9812   1.220   1.108   2.560
 3252SOL    HW2 9813   1.087   1.034   2.554
 3253SOL     OW 9814   0.423   0.441   4.720
 3253SOL    HW1 9815   0.400   0.393   4.799
 3253SOL    HW2 9816   0.449   0.374   4.657
 3254SOL     OW 9817   3.295   4.462   3.756
 3254SOL    HW1 9818   3.250   4.473   3.672
 3254SOL    HW2 9819   3.229   4.428   3.815
 3255SOL     OW 9820   3.436   3.395   1.437
 3255SOL    HW1 9821   3.477   3.428   1.517
 3255SOL    HW2 9822   3.498   3.330   1.404
 3256SOL     OW 9823   2.275   3.886   4.727
 3256SOL    HW1 9824   2.275   3.981   4.716
 3256SOL    HW2 9825   2.192   3.867   4.770
 3257SOL     OW 9826   0.316   3.079   1.234
 3257SOL    HW1 9827   0.335   3.106   1.144
 3257SOL    HW2 9828   0.239   3.022   1.226
 3258SOL     OW 9829   4.531   0.803   0.408
 3258SOL    HW1 9830   4.499   0.889   0.436
 3258SOL    HW2 9831   4.610   0.789   0.459
 3259SOL     OW 9832   3.637   3.558   4.045
 3259SOL    HW1 9833   3.604   3.619   4.110
 3259SOL    HW2 9834   3.727   3.540   4.072
 3260SOL     OW 9835   2.217   2.901   4.617
 3260SOL    HW1 9836   2.149   2.849   4.660
 3260SOL    HW2 9837   2.192   2.992   4.635
 3261SOL     OW 9838   2.513   3.358   2.344
 3261SOL    HW1 9839   2.586   3.402   2.299
 3261SOL    HW2 9840   2.543   3.346   2.434
 3262SOL     OW 9841   2.277   0.883   0.808
 3262SOL    HW1 9842   2.289   0.966   0.761
 3262SOL    HW2 9843   2.201   0.843   0.767
 3263SOL     OW 9844   0.221   1.495   1.044
 3263SOL    HW1 9845   0.213   1.509   0.950
 3263SOL    HW2 9846   0.168   1.564   1.083
 3264SOL     OW 9847   0.594   2.165   4.443
 3264SOL    HW1 9848   0.501   2.174   4.420
 3264SOL    HW2 9849   0.615   2.247   4.488
 3265SOL     OW 9850   2.009   2.361   4.117
 3265SOL    HW1 9851   2.089   2.364   4.066
 3265SOL    HW2 9852   1.982   2.453   4.126
 3266SOL     OW 9853   0.700   0.353   1.488
 3266SOL    HW1 9854   0.643   0.350   1.411
 3266SOL    HW2 9855   0.681   0.437   1.530
 3267SOL     OW 9856   0.007   0.072   1.471
 3267SOL    HW1 9857   0.081   0.130   1.454
 3267SOL    HW2 9858   0.022   4.964   1.412
 3268SOL     OW 9859   1.553   1.644   3.069
 3268SOL    HW1 9860   1.625   1.608   3.018
 3268SOL    HW2 9861   1.479   1.586   3.049
 3269SOL     OW 9862   2.905   4.859   2.828
 3269SOL    HW1 9863   2.821   4.873   2.783
 3269SOL    HW2 9864   2.937   4.775   2.794
 3270SOL     OW 9865   3.019   1.258   1.295
 3270SOL    HW1 9866   3.010   1.178   1.244
 3270SOL    HW2 9867   2.955   1.318   1.257
 3271SOL     OW 9868   2.650   3.282   3.418
 3271SOL    HW1 9869   2.577   3.326   3.374
 3271SOL    HW2 9870   2.671   3.338   3.492
 3272SOL     OW 9871   1.020   2.614   4.349
 3272SOL    HW1 9872   1.093   2.583   4.296
 3272SOL    HW2 9873   1.007   2.705   4.320
 3273SOL     OW 9874   2.046   1.774   0.807
 3273SOL    HW1 9875   2.090   1.722   0.740
 3273SOL    HW2 9876   1.953   1.752   0.798
 3274SOL     OW 9877   3.918   2.595   0.766
 3274SOL    HW1 9878   3.971   2.626   0.692
 3274SOL    HW2 9879   3.979   2.592   0.840
 3275SOL     OW 9880   2.220   0.662   1.966
 3275SOL    HW1 9881   2.267   0.579   1.978
 3275SOL    HW2 9882   2.289   0.726   1.948
 3276SOL     OW 9883   2.279   3.329   0.252
 3276SOL    HW1 9884   2.192   3.305   0.220
 3276SOL    HW2 9885   2.340   3.284   0.194
 3277SOL     OW 9886   3.133   4.882   2.357
 3277SOL    HW1 9887   3.071   4.921   2.418
 3277SOL    HW2 9888   3.078   4.838   2.292
 3278SOL     OW 9889   0.328   0.625   2.539
 3278SOL    HW1 9890   0.237   0.636   2.567
 3278SOL    HW2 9891   0.341   0.530   2.537
 3279SOL     OW 9892   2.919   3.394   4.544
 3279SOL    HW1 9893   2.908   3.332   4.472
 3279SOL    HW2 9894   2.836   3.441   4.548
 3280SOL     OW 9895   4.666   2.685   1.481
 3280SOL    HW1 9896   4.719   2.620   1.436
 3280SOL    HW2 9897   4.586   2.638   1.507
 3281SOL     OW 9898   3.209   1.054   0.203
 3281SOL    HW1 9899   3.195   1.124   0.267
 3281SOL    HW2 9900   3.125   1.047   0.157
 3282SOL     OW 9901   1.168   4.528   4.002
 3282SOL    HW1 9902   1.095   4.477   3.966
 3282SOL    HW2 9903   1.163   4.512   4.096
 3283SOL     OW 9904   1.290   1.431   3.709
 3283SOL    HW1 9905   1.346   1.365   3.749
 3283SOL    HW2 9906   1.335   1.457   3.629
 3284SOL     OW 9907   1.675   2.630   3.205
 3284SOL    HW1 9908   1.726   2.710   3.194
 3284SOL    HW2 9909   1.607   2.635   3.137
 3285SOL     OW 9910   2.696   1.099   4.151
 3285SOL    HW1 9911   2.685   1.194   4.142
 3285SOL    HW2 9912   2.727   1.086   4.241
 3286SOL     OW 9913   0.720   2.777   3.400
 3286SOL    HW1 9914   0.731   2.729   3.318
 3286SOL    HW2 9915   0.807   2.777   3.440
 3287SOL     OW 9916   2.915   1.486   2.346
 3287SOL    HW1 9917   2.883   1.518   2.431
 3287SOL    HW2 9918   2.969   1.410   2.367
 3288SOL     OW 9919   1.981   2.971   1.512
 3288SOL    HW1 9920   1.964   3.043   1.451
 3288SOL    HW2 9921   1.948   2.893   1.468
 3289SOL     OW 9922   0.529   2.717   4.312
 3289SOL    HW1 9923   0.478   2.663   4.252
 3289SOL    HW2 9924   0.531   2.667   4.394
 3290SOL     OW 9925   4.237   1.733   4.210
 3290SOL    HW1 9926   4.166   1.776   4.163
 3290SOL    HW2 9927   4.279   1.803   4.260
 3291SOL     OW 9928   2.657   2.714   4.367
 3291SOL    HW1 9929   2.713   2.700   4.444
 3291SOL    HW2 9930   2.569   2.691   4.398
 3292SOL     OW 9931   3.813   1.422   2.436
 3292SOL    HW1 9932   3.882   1.365   2.404
 3292SOL    HW2 9933   3.859   1.496   2.476
 3293SOL     OW 9934   2.831   2.884   2.812
 3293SOL    HW1 9935   2.754   2.940   2.811
 3293SOL    HW2 9936   2.886   2.917   2.740
 3294SOL     OW 9937   2.456   1.860   0.590
 3294SOL    HW1 9938   2.520   1.914   0.637
 3294SOL    HW2 9939   2.371   1.894   0.619
 3295SOL     OW 9940   4.698   0.081   4.001
 3295SOL    HW1 9941   4.650   0.146   3.949
 3295SOL    HW2 9942   4.773   0.058   3.947
 3296SOL     OW 9943   1.800   2.265   3.840
 3296SOL    HW1 9944   1.822   2.249   3.748
 3296SOL    HW2 9945   1.873   2.316   3.874
 3297SOL     OW 9946   2.449   3.501   4.031
 3297SOL    HW1 9947   2.403   3.433   4.081
 3297SOL    HW2 9948   2.431   3.582   4.079
 3298SOL     OW 9949   2.250   0.980   3.798
 3298SOL    HW1 9950   2.229   1.007   3.888
 3298SOL    HW2 9951   2.178   1.015   3.745
 3299SOL     OW 9952   1.102   2.890   2.513
 3299SOL    HW1 9953   1.021   2.872   2.464
 3299SOL    HW2 9954   1.102   2.825   2.583
 3300SOL     OW 9955   0.649   3.451   4.464
 3300SOL    HW1 9956   0.694   3.451   4.379
 3300SOL    HW2 9957   0.597   3.531   4.464
 3301SOL     OW 9958   4.095   2.134   2.380
 3301SOL    HW1 9959   4.014   2.084   2.368
 3301SOL    HW2 9960   4.131   2.100   2.462
 3302SOL     OW 9961   2.486   4.046   4.200
 3302SOL    HW1 9962   2.527   4.127   4.169
 3302SOL    HW2 9963   2.550   3.978   4.181
 3303SOL     OW 9964   2.106   2.323   2.043
 3303SOL    HW1 9965   2.194   2.324   2.004
 3303SOL    HW2 9966   2.076   2.414   2.037
 3304SOL     OW 9967   2.725   2.804   0.294
 3304SOL    HW1 9968   2.767   2.729   0.252
 3304SOL    HW2 9969   2.781   2.824   0.369
 3305SOL     OW 9970   2.792   3.231   2.455
 3305SOL    HW1 9971   2.867   3.288   2.441
 3305SOL    HW2 9972   2.724   3.288   2.491
 3306SOL     OW 9973   4.801   2.561   3.850
 3306SOL    HW1 9974   4.783   2.513   3.931
 3306SOL    HW2 9975   4.773   2.651   3.870
 3307SOL     OW 9976   0.587   2.268   2.252
 3307SOL    HW1 9977   0.566   2.176   2.235
 3307SOL    HW2 9978   0.593   2.309   2.166
 3308SOL     OW 9979   0.964   3.262   4.711
 3308SOL    HW1 9980   0.991   3.243   4.801
 3308SOL    HW2 9981   1.041   3.240   4.658
 3309SOL     OW 9982   1.059   3.340   3.678
 3309SOL    HW1 9983   1.027   3.428   3.659
 3309SOL    HW2 9984   1.130   3.353   3.741
 3310SOL     OW 9985   0.706   3.801   3.939
 3310SOL    HW1 9986   0.660   3.745   3.877
 3310SOL    HW2 9987   0.661   3.787   4.022
 3311SOL     OW 9988   2.732   3.585   2.781
 3311SOL    HW1 9989   2.690   3.611   2.863
 3311SOL    HW2 9990   2.825   3.604   2.795
 3312SOL     OW 9991   2.613   4.932   1.405
 3312SOL    HW1 9992   2.696   4.906   1.367
 3312SOL    HW2 9993   2.628   4.929   1.499
 3313SOL     OW 9994   0.484   3.006   4.438
 3313SOL    HW1 9995   0.478   3.033   4.346
 3313SOL    HW2 9996   0.492   2.911   4.435
 3314SOL     OW 9997   4.137   0.602   3.024
 3314SOL    HW1 9998   4.208   0.624   2.963
 3314SOL    HW2 9999   4.174   0.535   3.081
 3315SOL     OW10000   2.080   0.017   1.035
 3315SOL    HW110001   2.057   4.911   1.093
 3315SOL    HW210002   1.998   0.065   1.025
 3316SOL     OW10003   0.542   4.846   0.703
 3316SOL    HW110004   0.609   4.910   0.677
 3316SOL    HW210005   0.584   4.761   0.691
 3317SOL     OW10006   1.077   2.722   0.502
 3317SOL    HW110007   1.008   2.777   0.466
 3317SOL    HW210008   1.079   2.745   0.595
 3318SOL     OW10009   0.718   3.593   1.374
 3318SOL    HW110010   0.663   3.586   1.296
 3318SOL    HW210011   0.690   3.675   1.415
 3319SOL     OW10012   1.382   0.936   4.813
 3319SOL    HW110013   1.416   0.847   4.820
 3319SOL    HW210014   1.346   0.955   4.899
 3320SOL     OW10015   3.554   2.050   3.139
 3320SOL    HW110016   3.630   2.048   3.082
 3320SOL    HW210017   3.488   2.099   3.090
 3321SOL     OW10018   4.332   1.834   1.427
 3321SOL    HW110019   4.363   1.744   1.423
 3321SOL    HW210020   4.381   1.874   1.499
 3322SOL     OW10021   2.490   4.245   3.686
 3322SOL    HW110022   2.513   4.303   3.614
 3322SOL    HW210023   2.508   4.157   3.653
 3323SOL     OW10024   1.031   3.550   2.548
 3323SOL    HW110025   1.095   3.621   2.556
 3323SOL    HW210026   0.990   3.544   2.634
 3324SOL     OW10027   1.084   2.144   4.646
 3324SOL    HW110028   1.013   2.206   4.631
 3324SOL    HW210029   1.063   2.105   4.731
 3325SOL     OW10030   1.034   0.905   2.862
 3325SOL    HW110031   1.009   0.815   2.880
 3325SOL    HW210032   1.053   0.906   2.768
 3326SOL     OW10033   0.474   4.692   3.913
 3326SOL    HW110034   0.450   4.785   3.905
 3326SOL    HW210035   0.515   4.670   3.829
 3327SOL     OW10036   3.039   0.056   0.609
 3327SOL    HW110037   2.947   0.030   0.618
 3327SOL    HW210038   3.061   0.096   0.693
 3328SOL     OW10039   3.749   2.661   0.394
 3328SOL    HW110040   3.723   2.750   0.369
 3328SOL    HW210041   3.709   2.648   0.480
 3329SOL     OW10042   2.593   1.922   4.171
 3329SOL    HW110043   2.575   1.837   4.130
 3329SOL    HW210044   2.685   1.939   4.149
 3330SOL     OW10045   3.361   3.439   3.732
 3330SOL    HW110046   3.354   3.530   3.760
 3330SOL    HW210047   3.455   3.420   3.735
 3331SOL     OW10048   0.434   1.290   0.743
 3331SOL    HW110049   0.400   1.221   0.800
 3331SOL    HW210050   0.376   1.365   0.759
 3332SOL     OW10051   4.311   1.916   4.397
 3332SOL    HW110052   4.388   1.944   4.447
 3332SOL    HW210053   4.241   1.974   4.426
 3333SOL     OW10054   2.553   3.938   2.763
 3333SOL    HW110055   2.540   3.894   2.679
 3333SOL    HW210056   2.503   3.886   2.825
 3334SOL     OW10057   0.601   1.064   2.632
 3334SOL    HW110058   0.549   1.001   2.581
 3334SOL    HW210059   0.622   1.134   2.570
 3335SOL     OW10060   0.513   1.521   4.839
 3335SOL    HW110061   0.451   1.548   4.906
 3335SOL    HW210062   0.470   1.448   4.794
 3336SOL     OW10063   2.113   3.497   4.906
 3336SOL    HW110064   2.024   3.528   4.923
 3336SOL    HW210065   2.169   3.564   4.943
 3337SOL     OW10066   1.485   1.018   4.314
 3337SOL    HW110067   1.442   1.005   4.398
 3337SOL    HW210068   1.485   0.931   4.274
 3338SOL     OW10069   4.211   1.248   1.283
 3338SOL    HW110070   4.219   1.165   1.331
 3338SOL    HW210071   4.300   1.268   1.254
 3339SOL     OW10072   0.791   4.741   1.503
 3339SOL    HW110073   0.724   4.744   1.571
 3339SOL    HW210074   0.767   4.666   1.449
 3340SOL     OW10075   4.868   2.221   0.960
 3340SOL    HW110076   4.899   2.161   0.892
 3340SOL    HW210077   4.932   2.213   1.031
 3341SOL     OW10078   3.392   4.945   3.360
 3341SOL    HW110079   3.450   4.882   3.401
 3341SOL    HW210080   3.358   0.031   3.432
 3342SOL     OW10081   0.532   0.127   2.829
 3342SOL    HW110082   0.527   0.106   2.736
 3342SOL    HW210083   0.467   0.070   2.870
 3343SOL     OW10084   2.509   4.829   2.441
 3343SOL    HW110085   2.504   4.738   2.411
 3343SOL    HW210086   2.418   4.856   2.453
 3344SOL     OW10087   1.170   4.040   0.295
 3344SOL    HW110088   1.208   3.952   0.284
 3344SOL    HW210089   1.079   4.023   0.321
 3345SOL     OW10090   4.204   4.073   1.379
 3345SOL    HW110091   4.245   4.157   1.363
 3345SOL    HW210092   4.145   4.088   1.453
 3346SOL     OW10093   3.050   0.303   1.468
 3346SOL    HW110094   2.987   0.231   1.464
 3346SOL    HW210095   3.135   0.260   1.470
 3347SOL     OW10096   2.987   3.526   2.726
 3347SOL    HW110097   3.064   3.581   2.713
 3347SOL    HW210098   2.961   3.500   2.638
 3348SOL     OW10099   2.489   1.599   0.671
 3348SOL    HW110100   2.479   1.623   0.763
 3348SOL    HW210101   2.493   1.683   0.625
 3349SOL     OW10102   2.132   1.729   3.206
 3349SOL    HW110103   2.051   1.679   3.206
 3349SOL    HW210104   2.168   1.717   3.118
 3350SOL     OW10105   1.907   4.832   2.206
 3350SOL    HW110106   1.934   4.923   2.192
 3350SOL    HW210107   1.982   4.792   2.249
 3351SOL     OW10108   0.321   4.881   4.514
 3351SOL    HW110109   0.382   4.935   4.564
 3351SOL    HW210110   0.251   4.859   4.576
 3352SOL     OW10111   1.540   1.431   1.760
 3352SOL    HW110112   1.569   1.341   1.771
 3352SOL    HW210113   1.611   1.474   1.713
 3353SOL     OW10114   4.239   0.206   1.506
 3353SOL    HW110115   4.218   0.154   1.583
 3353SOL    HW210116   4.158   0.206   1.454
 3354SOL     OW10117   2.087   2.840   1.970
 3354SOL    HW110118   2.141   2.903   1.922
 3354SOL    HW210119   2.120   2.843   2.059
 3355SOL     OW10120   0.822   1.693   3.346
 3355SOL    HW110121   0.762   1.618   3.352
 3355SOL    HW210122   0.764   1.769   3.345
 3356SOL     OW10123   2.326   4.745   2.157
 3356SOL    HW110124   2.369   4.693   2.225
 3356SOL    HW210125   2.295   4.824   2.202
 3357SOL     OW10126   0.133   4.245   1.201
 3357SOL    HW110127   0.127   4.223   1.294
 3357SOL    HW210128   0.194   4.179   1.165
 3358SOL     OW10129   4.473   2.929   0.809
 3358SOL    HW110130   4.439   2.852   0.764
 3358SOL    HW210131   4.542   2.962   0.751
 3359SOL     OW10132   4.237   0.589   2.157
 3359SOL    HW110133   4.273   0.501   2.142
 3359SOL    HW210134   4.178   0.579   2.231
 3360SOL     OW10135   3.479   0.826   0.700
 3360SOL    HW110136   3.547   0.759   0.702
 3360SOL    HW210137   3.485   0.870   0.784
 3361SOL     OW10138   1.723   3.156   0.553
 3361SOL    HW110139   1.721   3.226   0.487
 3361SOL    HW210140   1.770   3.084   0.510
 3362SOL     OW10141   4.232   0.654   0.374
 3362SOL    HW110142   4.284   0.687   0.301
 3362SOL    HW210143   4.212   0.732   0.427
 3363SOL     OW10144   3.818   1.115   2.874
 3363SOL    HW110145   3.795   1.175   2.802
 3363SOL    HW210146   3.898   1.072   2.844
 3364SOL     OW10147   3.426   4.941   4.036
 3364SOL    HW110148   3.403   0.003   4.124
 3364SOL    HW210149   3.360   0.015   3.979
 3365SOL     OW10150   4.345   4.311   1.891
 3365SOL    HW110151   4.351   4.265   1.974
 3365SOL    HW210152   4.345   4.404   1.915
 3366SOL     OW10153   1.940   4.950   2.922
 3366SOL    HW110154   1.949   0.076   2.943
 3366SOL    HW210155   2.030   4.917   2.923
 3367SOL     OW10156   2.063   4.748   1.887
 3367SOL    HW110157   2.002   4.818   1.866
 3367SOL    HW210158   2.112   4.733   1.806
 3368SOL     OW10159   0.101   3.535   3.585
 3368SOL    HW110160   0.092   3.593   3.510
 3368SOL    HW210161   0.195   3.517   3.591
 3369SOL     OW10162   1.461   2.132   2.682
 3369SOL    HW110163   1.494   2.043   2.666
 3369SOL    HW210164   1.441   2.134   2.775
 3370SOL     OW10165   4.619   3.222   1.595
 3370SOL    HW110166   4.574   3.278   1.658
 3370SOL    HW210167   4.607   3.133   1.629
 3371SOL     OW10168   2.131   0.239   2.420
 3371SOL    HW110169   2.124   0.298   2.345
 3371SOL    HW210170   2.041   0.215   2.441
 3372SOL     OW10171   1.833   2.051   1.919
 3372SOL    HW110172   1.837   2.077   1.828
 3372SOL    HW210173   1.791   2.124   1.964
 3373SOL     OW10174   2.970   2.109   2.228
 3373SOL    HW110175   3.065   2.103   2.219
 3373SOL    HW210176   2.936   2.058   2.154
 3374SOL     OW10177   0.050   1.177   1.263
 3374SOL    HW110178   0.060   1.217   1.350
 3374SOL    HW210179   0.140   1.155   1.237
 3375SOL     OW10180   1.181   0.436   2.848
 3375SOL    HW110181   1.138   0.381   2.913
 3375SOL    HW210182   1.135   0.520   2.854
 3376SOL     OW10183   2.202   4.067   4.153
 3376SOL    HW110184   2.293   4.038   4.146
 3376SOL    HW210185   2.201   4.127   4.227
 3377SOL     OW10186   1.224   2.429   4.682
 3377SOL    HW110187   1.311   2.415   4.720
 3377SOL    HW210188   1.172   2.356   4.714
 3378SOL     OW10189   3.983   4.543   4.209
 3378SOL    HW110190   4.006   4.559   4.301
 3378SOL    HW210191   3.950   4.627   4.178
 3379SOL     OW10192   3.949   4.473   1.550
 3379SOL    HW110193   4.001   4.486   1.629
 3379SOL    HW210194   3.916   4.560   1.528
 3380SOL     OW10195   1.653   2.948   2.947
 3380SOL    HW110196   1.721   2.938   2.879
 3380SOL    HW210197   1.636   2.859   2.977
 3381SOL     OW10198   3.657   0.257   3.950
 3381SOL    HW110199   3.576   0.279   3.997
 3381SOL    HW210200   3.689   0.341   3.917
 3382SOL     OW10201   0.289   0.127   4.339
 3382SOL    HW110202   0.267   0.050   4.391
 3382SOL    HW210203   0.223   0.193   4.363
 3383SOL     OW10204   4.963   0.780   4.665
 3383SOL    HW110205   4.962   0.808   4.573
 3383SOL    HW210206   0.030   0.691   4.663
 3384SOL     OW10207   3.386   2.742   4.866
 3384SOL    HW110208   3.460   2.791   4.829
 3384SOL    HW210209   3.333   2.808   4.911
 3385SOL     OW10210   4.363   2.519   0.964
 3385SOL    HW110211   4.402   2.456   1.024
 3385SOL    HW210212   4.431   2.585   0.950
 3386SOL     OW10213   4.300   1.791   0.813
 3386SOL    HW110214   4.213   1.761   0.786
 3386SOL    HW210215   4.309   1.762   0.903
 3387SOL     OW10216   3.048   3.876   3.313
 3387SOL    HW110217   2.965   3.922   3.301
 3387SOL    HW210218   3.047   3.807   3.247
 3388SOL     OW10219   3.584   3.930   4.608
 3388SOL    HW110220   3.510   3.872   4.627
 3388SOL    HW210221   3.570   4.006   4.665
 3389SOL     OW10222   3.143   2.459   3.591
 3389SOL    HW110223   3.087   2.426   3.661
 3389SOL    HW210224   3.140   2.554   3.601
 3390SOL     OW10225   1.228   3.722   3.929
 3390SOL    HW110226   1.287   3.734   4.004
 3390SOL    HW210227   1.145   3.760   3.956
 3391SOL     OW10228   2.960   4.932   4.005
 3391SOL    HW110229   2.930   4.867   4.069
 3391SOL    HW210230   2.979   0.044   4.057
 3392SOL     OW10231   2.674   0.612   4.711
 3392SOL    HW110232   2.663   0.659   4.628
 3392SOL    HW210233   2.752   0.558   4.698
 3393SOL     OW10234   0.552   1.979   0.285
 3393SOL    HW110235   0.596   2.007   0.366
 3393SOL    HW210236   0.553   2.057   0.230
 3394SOL     OW10237   4.066   1.782   2.164
 3394SOL    HW110238   4.114   1.703   2.192
 3394SOL    HW210239   4.022   1.756   2.083
 3395SOL     OW10240   0.603   1.343   1.418
 3395SOL    HW110241   0.607   1.274   1.351
 3395SOL    HW210242   0.626   1.298   1.499
 3396SOL     OW10243   4.871   3.880   4.595
 3396SOL    HW110244   4.800   3.923   4.643
 3396SOL    HW210245   4.827   3.822   4.533
 3397SOL     OW10246   0.855   2.519   3.486
 3397SOL    HW110247   0.859   2.614   3.494
 3397SOL    HW210248   0.772   2.495   3.526
 3398SOL     OW10249   3.787   2.788   1.095
 3398SOL    HW110250   3.788   2.844   1.017
 3398SOL    HW210251   3.751   2.705   1.065
 3399SOL     OW10252   2.477   3.078   1.358
 3399SOL    HW110253   2.473   3.053   1.266
 3399SOL    HW210254   2.506   2.999   1.403
 3400SOL     OW10255   1.430   0.055   0.878
 3400SOL    HW110256   1.368   0.052   0.950
 3400SOL    HW210257   1.502   4.965   0.906
 3401SOL     OW10258   1.270   4.794   1.500
 3401SOL    HW110259   1.213   4.808   1.575
 3401SOL    HW210260   1.358   4.812   1.532
 3402SOL     OW10261   0.942   3.076   0.277
 3402SOL    HW110262   0.944   2.995   0.226
 3402SOL    HW210263   1.019   3.071   0.334
 3403SOL     OW10264   2.786   3.709   4.958
 3403SOL    HW110265   2.760   3.770   4.889
 3403SOL    HW210266   2.703   3.676   0.027
 3404SOL     OW10267   4.749   1.762   3.581
 3404SOL    HW110268   4.795   1.827   3.635
 3404SOL    HW210269   4.656   1.778   3.600
 3405SOL     OW10270   3.366   0.272   4.498
 3405SOL    HW110271   3.361   0.312   4.585
 3405SOL    HW210272   3.456   0.241   4.491
 3406SOL     OW10273   4.852   3.726   0.975
 3406SOL    HW110274   4.834   3.632   0.982
 3406SOL    HW210275   4.941   3.731   0.940
 3407SOL     OW10276   4.000   4.806   1.761
 3407SOL    HW110277   4.013   4.718   1.724
 3407SOL    HW210278   3.925   4.841   1.714
 3408SOL     OW10279   3.592   3.915   1.911
 3408SOL    HW110280   3.614   3.983   1.847
 3408SOL    HW210281   3.675   3.891   1.951
 3409SOL     OW10282   2.645   1.981   1.893
 3409SOL    HW110283   2.641   2.065   1.847
 3409SOL    HW210284   2.737   1.972   1.919
 3410SOL     OW10285   2.888   3.407   0.554
 3410SOL    HW110286   2.903   3.329   0.607
 3410SOL    HW210287   2.796   3.429   0.570
 3411SOL     OW10288   2.173   0.942   3.405
 3411SOL    HW110289   2.163   0.879   3.476
 3411SOL    HW210290   2.132   0.900   3.330
 3412SOL     OW10291   4.279   0.351   4.099
 3412SOL    HW110292   4.236   0.397   4.172
 3412SOL    HW210293   4.354   0.406   4.077
 3413SOL     OW10294   1.485   1.696   4.791
 3413SOL    HW110295   1.431   1.674   4.714
 3413SOL    HW210296   1.475   1.621   4.849
 3414SOL     OW10297   2.131   4.084   3.903
 3414SOL    HW110298   2.063   4.139   3.941
 3414SOL    HW210299   2.200   4.081   3.970
 3415SOL     OW10300   3.147   2.958   2.185
 3415SOL    HW110301   3.229   2.908   2.190
 3415SOL    HW210302   3.079   2.896   2.209
 3416SOL     OW10303   3.463   0.856   3.444
 3416SOL    HW110304   3.403   0.930   3.435
 3416SOL    HW210305   3.500   0.844   3.356
 3417SOL     OW10306   2.397   1.349   0.585
 3417SOL    HW110307   2.475   1.318   0.541
 3417SOL    HW210308   2.416   1.440   0.608
 3418SOL     OW10309   4.857   1.777   2.779
 3418SOL    HW110310   4.910   1.854   2.797
 3418SOL    HW210311   4.848   1.776   2.683
 3419SOL     OW10312   2.520   0.739   0.843
 3419SOL    HW110313   2.495   0.731   0.751
 3419SOL    HW210314   2.459   0.804   0.879
 3420SOL     OW10315   2.328   4.775   3.438
 3420SOL    HW110316   2.365   4.823   3.511
 3420SOL    HW210317   2.328   4.683   3.466
 3421SOL     OW10318   0.916   2.353   4.619
 3421SOL    HW110319   0.948   2.442   4.603
 3421SOL    HW210320   0.834   2.365   4.667
 3422SOL     OW10321   3.253   4.248   1.133
 3422SOL    HW110322   3.213   4.163   1.118
 3422SOL    HW210323   3.317   4.258   1.062
 3423SOL     OW10324   2.244   3.759   3.467
 3423SOL    HW110325   2.161   3.721   3.496
 3423SOL    HW210326   2.238   3.758   3.371
 3424SOL     OW10327   2.542   2.991   2.932
 3424SOL    HW110328   2.524   2.899   2.912
 3424SOL    HW210329   2.461   3.036   2.912
 3425SOL     OW10330   3.410   2.596   1.022
 3425SOL    HW110331   3.406   2.501   1.032
 3425SOL    HW210332   3.439   2.627   1.108
 3426SOL     OW10333   0.025   2.738   2.191
 3426SOL    HW110334   0.083   2.727   2.115
 3426SOL    HW210335   4.906   2.710   2.159
 3427SOL     OW10336   1.844   1.802   2.334
 3427SOL    HW110337   1.828   1.796   2.240
 3427SOL    HW210338   1.902   1.878   2.344
 3428SOL     OW10339   2.498   4.784   4.397
 3428SOL    HW110340   2.403   4.790   4.394
 3428SOL    HW210341   2.528   4.831   4.320
 3429SOL     OW10342   1.355   3.746   4.628
 3429SOL    HW110343   1.351   3.747   4.532
 3429SOL    HW210344   1.334   3.655   4.651
 3430SOL     OW10345   4.724   3.222   0.433
 3430SOL    HW110346   4.658   3.193   0.369
 3430SOL    HW210347   4.712   3.163   0.507
 3431SOL     OW10348   0.557   0.383   2.428
 3431SOL    HW110349   0.482   0.370   2.486
 3431SOL    HW210350   0.527   0.349   2.343
 3432SOL     OW10351   3.790   2.657   3.195
 3432SOL    HW110352   3.836   2.588   3.243
 3432SOL    HW210353   3.780   2.623   3.106
 3433SOL     OW10354   3.640   1.813   1.346
 3433SOL    HW110355   3.649   1.806   1.441
 3433SOL    HW210356   3.715   1.866   1.318
 3434SOL     OW10357   2.592   2.285   4.388
 3434SOL    HW110358   2.501   2.258   4.375
 3434SOL    HW210359   2.601   2.295   4.482
 3435SOL     OW10360   2.715   2.079   4.619
 3435SOL    HW110361   2.795   2.103   4.574
 3435SOL    HW210362   2.670   2.020   4.559
 3436SOL     OW10363   1.233   4.785   1.026
 3436SOL    HW110364   1.297   4.716   1.041
 3436SOL    HW210365   1.226   4.831   1.110
 3437SOL     OW10366   4.931   4.676   3.037
 3437SOL    HW110367   0.013   4.692   2.955
 3437SOL    HW210368   0.009   4.601   3.076
 3438SOL     OW10369   4.207   4.626   2.946
 3438SOL    HW110370   4.123   4.597   2.980
 3438SOL    HW210371   4.221   4.712   2.985
 3439SOL     OW10372   3.207   0.660   2.551
 3439SOL    HW110373   3.126   0.610   2.548
 3439SOL    HW210374   3.236   0.653   2.642
 3440SOL     OW10375   4.553   4.489   2.104
 3440SOL    HW110376   4.558   4.408   2.155
 3440SOL    HW210377   4.576   4.558   2.166
 3441SOL     OW10378   0.166   2.282   1.290
 3441SOL    HW110379   0.213   2.308   1.369
 3441SOL    HW210380   0.218   2.318   1.219
 3442SOL     OW10381   3.968   4.204   0.222
 3442SOL    HW110382   3.888   4.153   0.226
 3442SOL    HW210383   4.034   4.144   0.187
 3443SOL     OW10384   0.211   2.185   2.341
 3443SOL    HW110385   0.246   2.263   2.298
 3443SOL    HW210386   0.118   2.186   2.320
 3444SOL     OW10387   3.452   3.945   3.248
 3444SOL    HW110388   3.384   3.938   3.316
 3444SOL    HW210389   3.455   4.038   3.226
 3445SOL     OW10390   2.845   2.131   1.418
 3445SOL    HW110391   2.833   2.108   1.325
 3445SOL    HW210392   2.938   2.119   1.433
 3446SOL     OW10393   4.103   0.680   0.785
 3446SOL    HW110394   4.141   0.615   0.844
 3446SOL    HW210395   4.011   0.685   0.811
 3447SOL     OW10396   1.545   4.636   0.496
 3447SOL    HW110397   1.520   4.544   0.502
 3447SOL    HW210398   1.625   4.636   0.443
 3448SOL     OW10399   4.865   0.031   4.220
 3448SOL    HW110400   4.786   0.039   4.167
 3448SOL    HW210401   4.924   4.943   4.168
 3449SOL     OW10402   0.318   1.172   1.172
 3449SOL    HW110403   0.371   1.250   1.154
 3449SOL    HW210404   0.375   1.117   1.227
 3450SOL     OW10405   3.793   3.004   2.956
 3450SOL    HW110406   3.734   3.072   2.988
 3450SOL    HW210407   3.737   2.945   2.906
 3451SOL     OW10408   1.454   0.586   1.398
 3451SOL    HW110409   1.542   0.549   1.393
 3451SOL    HW210410   1.468   0.680   1.386
 3452SOL     OW10411   3.447   3.922   2.951
 3452SOL    HW110412   3.442   3.946   3.043
 3452SOL    HW210413   3.388   3.847   2.942
 3453SOL     OW10414   1.660   0.263   0.866
 3453SOL    HW110415   1.671   0.354   0.895
 3453SOL    HW210416   1.566   0.247   0.873
 3454SOL     OW10417   3.725   1.183   4.282
 3454SOL    HW110418   3.732   1.202   4.189
 3454SOL    HW210419   3.780   1.106   4.295
 3455SOL     OW10420   3.005   2.276   2.704
 3455SOL    HW110421   3.017   2.241   2.793
 3455SOL    HW210422   2.983   2.200   2.651
 3456SOL     OW10423   2.889   0.801   4.866
 3456SOL    HW110424   2.892   0.853   4.785
 3456SOL    HW210425   2.978   0.807   4.901
 3457SOL     OW10426   1.714   3.782   3.255
 3457SOL    HW110427   1.757   3.743   3.178
 3457SOL    HW210428   1.757   3.740   3.329
 3458SOL     OW10429   2.615   1.663   1.223
 3458SOL    HW110430   2.550   1.649   1.291
 3458SOL    HW210431   2.596   1.597   1.157
 3459SOL     OW10432   1.641   4.559   2.686
 3459SOL    HW110433   1.666   4.556   2.594
 3459SOL    HW210434   1.683   4.638   2.719
 3460SOL     OW10435   1.051   4.606   2.474
 3460SOL    HW110436   1.079   4.696   2.458
 3460SOL    HW210437   1.050   4.565   2.388
 3461SOL     OW10438   2.173   3.541   4.303
 3461SOL    HW110439   2.184   3.615   4.243
 3461SOL    HW210440   2.171   3.580   4.390
 3462SOL     OW10441   1.688   3.219   2.941
 3462SOL    HW110442   1.687   3.123   2.936
 3462SOL    HW210443   1.612   3.246   2.891
 3463SOL     OW10444   3.682   0.484   3.823
 3463SOL    HW110445   3.648   0.572   3.838
 3463SOL    HW210446   3.734   0.491   3.744
 3464SOL     OW10447   1.691   2.993   1.784
 3464SOL    HW110448   1.697   3.049   1.707
 3464SOL    HW210449   1.665   2.907   1.749
 3465SOL     OW10450   0.963   0.947   4.903
 3465SOL    HW110451   0.958   0.864   4.855
 3465SOL    HW210452   1.047   0.985   4.877
 3466SOL     OW10453   3.911   4.018   1.497
 3466SOL    HW110454   3.971   3.955   1.537
 3466SOL    HW210455   3.880   3.974   1.418
 3467SOL     OW10456   0.406   1.283   4.751
 3467SOL    HW110457   0.325   1.232   4.753
 3467SOL    HW210458   0.452   1.250   4.673
 3468SOL     OW10459   1.388   4.258   4.498
 3468SOL    HW110460   1.394   4.170   4.461
 3468SOL    HW210461   1.455   4.309   4.453
 3469SOL     OW10462   4.086   0.463   0.538
 3469SOL    HW110463   4.130   0.515   0.470
 3469SOL    HW210464   4.116   0.502   0.620
 3470SOL     OW10465   1.318   2.060   4.540
 3470SOL    HW110466   1.381   2.109   4.593
 3470SOL    HW210467   1.233   2.082   4.577
 3471SOL     OW10468   0.982   4.464   1.632
 3471SOL    HW110469   0.935   4.526   1.576
 3471SOL    HW210470   1.069   4.458   1.592
 3472SOL     OW10471   1.884   4.705   3.849
 3472SOL    HW110472   1.915   4.624   3.810
 3472SOL    HW210473   1.940   4.773   3.811
 3473SOL     OW10474   2.364   1.628   0.169
 3473SOL    HW110475   2.367   1.620   0.264
 3473SOL    HW210476   2.446   1.588   0.139
 3474SOL     OW10477   0.890   2.497   4.124
 3474SOL    HW110478   0.895   2.402   4.130
 3474SOL    HW210479   0.902   2.527   4.215
 3475SOL     OW10480   4.517   4.021   2.116
 3475SOL    HW110481   4.503   3.978   2.032
 3475SOL    HW210482   4.561   3.956   2.171
 3476SOL     OW10483   1.332   2.824   1.571
 3476SOL    HW110484   1.347   2.874   1.652
 3476SOL    HW210485   1.277   2.881   1.518
 3477SOL     OW10486   2.093   2.362   3.835
 3477SOL    HW110487   2.177   2.373   3.879
 3477SOL    HW210488   2.112   2.305   3.761
 3478SOL     OW10489   0.515   2.408   2.474
 3478SOL    HW110490   0.559   2.377   2.394
 3478SOL    HW210491   0.468   2.331   2.506
 3479SOL     OW10492   4.353   2.183   1.086
 3479SOL    HW110493   4.425   2.202   1.026
 3479SOL    HW210494   4.283   2.150   1.029
 3480SOL     OW10495   0.271   2.473   0.804
 3480SOL    HW110496   0.321   2.407   0.755
 3480SOL    HW210497   0.280   2.446   0.896
 3481SOL     OW10498   4.828   0.391   3.580
 3481SOL    HW110499   4.923   0.396   3.588
 3481SOL    HW210500   4.800   0.482   3.579
 3482SOL     OW10501   0.937   1.737   2.564
 3482SOL    HW110502   0.957   1.822   2.524
 3482SOL    HW210503   0.933   1.677   2.489
 3483SOL     OW10504   0.240   3.350   3.289
 3483SOL    HW110505   0.197   3.409   3.227
 3483SOL    HW210506   0.331   3.348   3.260
 3484SOL     OW10507   3.455   0.280   4.136
 3484SOL    HW110508   3.386   0.255   4.197
 3484SOL    HW210509   3.428   0.366   4.103
 3485SOL     OW10510   2.089   1.984   4.723
 3485SOL    HW110511   2.044   2.067   4.702
 3485SOL    HW210512   2.179   1.999   4.695
 3486SOL     OW10513   4.702   2.826   3.877
 3486SOL    HW110514   4.661   2.906   3.844
 3486SOL    HW210515   4.772   2.856   3.935
 3487SOL     OW10516   3.389   1.039   1.447
 3487SOL    HW110517   3.307   1.008   1.486
 3487SOL    HW210518   3.418   1.110   1.505
 3488SOL     OW10519   0.536   1.632   1.416
 3488SOL    HW110520   0.541   1.538   1.434
 3488SOL    HW210521   0.550   1.639   1.322
 3489SOL     OW10522   1.816   3.151   2.665
 3489SOL    HW110523   1.790   3.060   2.678
 3489SOL    HW210524   1.753   3.186   2.603
 3490SOL     OW10525   3.632   3.154   3.148
 3490SOL    HW110526   3.609   3.237   3.191
 3490SOL    HW210527   3.587   3.088   3.200
 3491SOL     OW10528   3.325   3.208   4.221
 3491SOL    HW110529   3.376   3.220   4.141
 3491SOL    HW210530   3.307   3.114   4.224
 3492SOL     OW10531   2.069   4.891   3.757
 3492SOL    HW110532   2.086   0.012   3.792
 3492SOL    HW210533   2.103   4.894   3.668
 3493SOL     OW10534   1.244   4.766   3.860
 3493SOL    HW110535   1.207   4.712   3.929
 3493SOL    HW210536   1.211   4.854   3.879
 3494SOL     OW10537   3.791   1.787   3.349
 3494SOL    HW110538   3.875   1.818   3.382
 3494SOL    HW210539   3.811   1.744   3.266
 3495SOL     OW10540   4.485   4.878   0.991
 3495SOL    HW110541   4.495   4.920   0.906
 3495SOL    HW210542   4.420   4.931   1.037
 3496SOL     OW10543   0.881   1.252   4.690
 3496SOL    HW110544   0.868   1.317   4.759
 3496SOL    HW210545   0.951   1.288   4.636
 3497SOL     OW10546   2.921   2.529   0.409
 3497SOL    HW110547   2.997   2.532   0.467
 3497SOL    HW210548   2.958   2.528   0.321
 3498SOL     OW10549   3.151   0.581   4.855
 3498SOL    HW110550   3.106   0.661   4.883
 3498SOL    HW210551   3.219   0.612   4.795
 3499SOL     OW10552   2.968   3.740   3.903
 3499SOL    HW110553   3.033   3.719   3.971
 3499SOL    HW210554   2.887   3.701   3.935
 3500SOL     OW10555   3.240   4.403   4.151
 3500SOL    HW110556   3.184   4.392   4.228
 3500SOL    HW210557   3.300   4.328   4.153
 3501SOL     OW10558   2.572   0.076   3.927
 3501SOL    HW110559   2.493   0.021   3.927
 3501SOL    HW210560   2.540   0.164   3.907
 3502SOL     OW10561   4.237   0.820   3.505
 3502SOL    HW110562   4.200   0.908   3.499
 3502SOL    HW210563   4.190   0.769   3.439
 3503SOL     OW10564   2.001   0.051   1.818
 3503SOL    HW110565   2.031   0.057   1.909
 3503SOL    HW210566   2.081   0.058   1.766
 3504SOL     OW10567   3.330   0.012   4.549
 3504SOL    HW110568   3.407   4.930   4.579
 3504SOL    HW210569   3.352   0.104   4.565
 3505SOL     OW10570   1.239   1.229   3.255
 3505SOL    HW110571   1.201   1.175   3.185
 3505SOL    HW210572   1.165   1.281   3.287
 3506SOL     OW10573   3.782   2.594   1.456
 3506SOL    HW110574   3.770   2.680   1.416
 3506SOL    HW210575   3.779   2.533   1.382
 3507SOL     OW10576   3.790   1.854   0.925
 3507SOL    HW110577   3.759   1.903   0.849
 3507SOL    HW210578   3.746   1.769   0.918
 3508SOL     OW10579   0.994   3.121   2.978
 3508SOL    HW110580   0.959   3.094   3.063
 3508SOL    HW210581   0.938   3.076   2.914
 3509SOL     OW10582   3.447   4.223   4.304
 3509SOL    HW110583   3.458   4.303   4.355
 3509SOL    HW210584   3.500   4.236   4.226
 3510SOL     OW10585   2.724   0.258   1.035
 3510SOL    HW110586   2.739   0.351   1.048
 3510SOL    HW210587   2.645   0.239   1.086
 3511SOL     OW10588   1.375   4.352   0.622
 3511SOL    HW110589   1.311   4.359   0.551
 3511SOL    HW210590   1.401   4.260   0.622
 3512SOL     OW10591   0.133   0.532   4.638
 3512SOL    HW110592   0.187   0.555   4.714
 3512SOL    HW210593   0.176   0.576   4.564
 3513SOL     OW10594   2.036   4.298   3.262
 3513SOL    HW110595   1.991   4.267   3.184
 3513SOL    HW210596   1.972   4.286   3.333
 3514SOL     OW10597   0.582   1.931   1.462
 3514SOL    HW110598   0.631   1.921   1.544
 3514SOL    HW210599   0.636   1.885   1.397
 3515SOL     OW10600   2.796   3.844   2.101
 3515SOL    HW110601   2.772   3.807   2.016
 3515SOL    HW210602   2.748   3.790   2.165
 3516SOL     OW10603   4.325   1.485   0.882
 3516SOL    HW110604   4.289   1.397   0.879
 3516SOL    HW210605   4.414   1.474   0.915
 3517SOL     OW10606   3.569   3.473   4.676
 3517SOL    HW110607   3.612   3.547   4.719
 3517SOL    HW210608   3.534   3.420   4.748
 3518SOL     OW10609   2.835   3.476   1.630
 3518SOL    HW110610   2.810   3.412   1.563
 3518SOL    HW210611   2.890   3.539   1.584
 3519SOL     OW10612   2.469   2.757   3.380
 3519SOL    HW110613   2.561   2.784   3.377
 3519SOL    HW210614   2.419   2.838   3.369
 3520SOL     OW10615   4.844   0.911   2.207
 3520SOL    HW110616   4.799   0.880   2.129
 3520SOL    HW210617   4.775   0.920   2.273
 3521SOL     OW10618   1.445   4.693   2.181
 3521SOL    HW110619   1.436   4.786   2.198
 3521SOL    HW210620   1.376   4.672   2.119
 3522SOL     OW10621   4.307   2.469   4.063
 3522SOL    HW110622   4.232   2.468   4.004
 3522SOL    HW210623   4.371   2.525   4.019
 3523SOL     OW10624   0.310   4.299   3.070
 3523SOL    HW110625   0.363   4.221   3.057
 3523SOL    HW210626   0.362   4.354   3.128
 3524SOL     OW10627   2.288   2.722   3.717
 3524SOL    HW110628   2.315   2.810   3.691
 3524SOL    HW210629   2.257   2.682   3.636
 3525SOL     OW10630   1.920   3.947   3.084
 3525SOL    HW110631   1.942   4.025   3.032
 3525SOL    HW210632   1.900   3.982   3.171
 3526SOL     OW10633   0.705   2.293   0.564
 3526SOL    HW110634   0.640   2.313   0.496
 3526SOL    HW210635   0.780   2.349   0.542
 3527SOL     OW10636   3.359   0.273   1.028
 3527SOL    HW110637   3.395   0.318   0.952
 3527SOL    HW210638   3.287   0.328   1.057
 3528SOL     OW10639   2.587   2.174   0.419
 3528SOL    HW110640   2.599   2.247   0.479
 3528SOL    HW210641   2.568   2.214   0.335
 3529SOL     OW10642   4.781   3.475   1.591
 3529SOL    HW110643   4.731   3.404   1.552
 3529SOL    HW210644   4.863   3.434   1.620
 3530SOL     OW10645   3.255   1.323   0.649
 3530SOL    HW110646   3.251   1.243   0.597
 3530SOL    HW210647   3.323   1.375   0.606
 3531SOL     OW10648   1.379   1.299   4.380
 3531SOL    HW110649   1.367   1.358   4.305
 3531SOL    HW210650   1.383   1.212   4.342
 3532SOL     OW10651   2.069   1.115   1.705
 3532SOL    HW110652   2.130   1.045   1.724
 3532SOL    HW210653   2.055   1.159   1.789
 3533SOL     OW10654   2.167   0.417   1.040
 3533SOL    HW110655   2.223   0.386   0.969
 3533SOL    HW210656   2.176   0.513   1.037
 3534SOL     OW10657   0.813   2.250   1.511
 3534SOL    HW110658   0.880   2.182   1.506
 3534SOL    HW210659   0.860   2.328   1.542
 3535SOL     OW10660   2.533   2.555   3.626
 3535SOL    HW110661   2.503   2.589   3.542
 3535SOL    HW210662   2.460   2.504   3.659
 3536SOL     OW10663   3.869   1.549   0.497
 3536SOL    HW110664   3.909   1.485   0.557
 3536SOL    HW210665   3.803   1.499   0.449
 3537SOL     OW10666   0.134   1.286   0.569
 3537SOL    HW110667   0.099   1.263   0.482
 3537SOL    HW210668   0.085   1.231   0.630
 3538SOL     OW10669   4.816   3.448   2.458
 3538SOL    HW110670   4.847   3.417   2.544
 3538SOL    HW210671   4.887   3.425   2.398
 3539SOL     OW10672   0.983   0.333   1.320
 3539SOL    HW110673   1.068   0.315   1.359
 3539SOL    HW210674   0.919   0.298   1.383
 3540SOL     OW10675   3.670   2.024   0.281
 3540SOL    HW110676   3.696   2.115   0.296
 3540SOL    HW210677   3.752   1.978   0.263
 3541SOL     OW10678   0.878   1.083   0.708
 3541SOL    HW110679   0.965   1.100   0.745
 3541SOL    HW210680   0.879   1.128   0.623
 3542SOL     OW10681   0.969   0.778   3.984
 3542SOL    HW110682   0.986   0.749   3.894
 3542SOL    HW210683   0.891   0.730   4.010
 3543SOL     OW10684   1.908   1.106   2.106
 3543SOL    HW110685   1.929   1.028   2.054
 3543SOL    HW210686   1.815   1.096   2.127
 3544SOL     OW10687   0.345   2.061   1.705
 3544SOL    HW110688   0.399   2.140   1.702
 3544SOL    HW210689   0.406   1.990   1.725
 3545SOL     OW10690   4.503   4.832   1.808
 3545SOL    HW110691   4.484   4.794   1.723
 3545SOL    HW210692   4.561   4.906   1.788
 3546SOL     OW10693   0.825   4.637   0.221
 3546SOL    HW110694   0.793   4.568   0.164
 3546SOL    HW210695   0.905   4.602   0.259
 3547SOL     OW10696   4.773   4.936   0.026
 3547SOL    HW110697   4.736   0.054   0.001
 3547SOL    HW210698   4.828   4.910   4.919
 3548SOL     OW10699   0.843   4.632   3.843
 3548SOL    HW110700   0.804   4.655   3.759
 3548SOL    HW210701   0.884   4.712   3.874
 3549SOL     OW10702   1.379   0.423   0.703
 3549SOL    HW110703   1.373   0.444   0.796
 3549SOL    HW210704   1.353   0.331   0.697
 3550SOL     OW10705   3.510   2.467   1.791
 3550SOL    HW110706   3.603   2.481   1.778
 3550SOL    HW210707   3.475   2.553   1.814
 3551SOL     OW10708   0.799   4.152   4.690
 3551SOL    HW110709   0.843   4.067   4.680
 3551SOL    HW210710   0.836   4.189   4.770
 3552SOL     OW10711   0.633   4.479   2.767
 3552SOL    HW110712   0.603   4.423   2.839
 3552SOL    HW210713   0.660   4.417   2.699
 3553SOL     OW10714   1.429   3.545   2.441
 3553SOL    HW110715   1.420   3.491   2.519
 3553SOL    HW210716   1.508   3.512   2.397
 3554SOL     OW10717   2.778   2.775   4.129
 3554SOL    HW110718   2.755   2.743   4.216
 3554SOL    HW210719   2.840   2.846   4.145
 3555SOL     OW10720   2.288   1.500   2.290
 3555SOL    HW110721   2.205   1.458   2.266
 3555SOL    HW210722   2.263   1.567   2.354
 3556SOL     OW10723   1.822   0.537   0.790
 3556SOL    HW110724   1.793   0.546   0.881
 3556SOL    HW210725   1.743   0.548   0.738
 3557SOL     OW10726   3.185   0.368   0.352
 3557SOL    HW110727   3.173   0.382   0.258
 3557SOL    HW210728   3.105   0.402   0.392
 3558SOL     OW10729   0.496   4.884   3.207
 3558SOL    HW110730   0.574   4.922   3.247
 3558SOL    HW210731   0.526   4.851   3.122
 3559SOL     OW10732   3.254   1.690   0.906
 3559SOL    HW110733   3.299   1.762   0.861
 3559SOL    HW210734   3.298   1.684   0.991
 3560SOL     OW10735   4.397   4.687   1.592
 3560SOL    HW110736   4.317   4.723   1.553
 3560SOL    HW210737   4.373   4.598   1.619
 3561SOL     OW10738   4.270   2.219   0.685
 3561SOL    HW110739   4.334   2.150   0.702
 3561SOL    HW210740   4.203   2.206   0.752
 3562SOL     OW10741   3.391   1.711   4.639
 3562SOL    HW110742   3.461   1.686   4.699
 3562SOL    HW210743   3.400   1.650   4.565
 3563SOL     OW10744   2.729   2.183   3.970
 3563SOL    HW110745   2.638   2.212   3.970
 3563SOL    HW210746   2.779   2.260   3.999
 3564SOL     OW10747   4.627   1.624   2.858
 3564SOL    HW110748   4.710   1.643   2.815
 3564SOL    HW210749   4.646   1.634   2.951
 3565SOL     OW10750   3.804   4.103   2.062
 3565SOL    HW110751   3.839   4.017   2.041
 3565SOL    HW210752   3.788   4.100   2.156
 3566SOL     OW10753   3.824   2.627   2.326
 3566SOL    HW110754   3.882   2.559   2.360
 3566SOL    HW210755   3.882   2.700   2.304
 3567SOL     OW10756   0.344   4.179   0.932
 3567SOL    HW110757   0.271   4.211   0.879
 3567SOL    HW210758   0.304   4.117   0.994
 3568SOL     OW10759   2.981   0.977   2.461
 3568SOL    HW110760   2.902   0.958   2.411
 3568SOL    HW210761   2.958   0.958   2.552
 3569SOL     OW10762   0.418   3.524   3.475
 3569SOL    HW110763   0.429   3.429   3.472
 3569SOL    HW210764   0.500   3.559   3.442
 3570SOL     OW10765   2.617   2.986   4.284
 3570SOL    HW110766   2.632   3.020   4.373
 3570SOL    HW210767   2.617   2.891   4.294
 3571SOL     OW10768   3.496   0.878   4.023
 3571SOL    HW110769   3.497   0.960   3.975
 3571SOL    HW210770   3.584   0.843   4.014
 3572SOL     OW10771   4.857   0.317   4.289
 3572SOL    HW110772   4.820   0.234   4.321
 3572SOL    HW210773   4.919   0.291   4.221
 3573SOL     OW10774   3.712   3.937   3.825
 3573SOL    HW110775   3.758   4.017   3.850
 3573SOL    HW210776   3.679   3.955   3.737
 3574SOL     OW10777   4.784   0.421   1.450
 3574SOL    HW110778   4.803   0.482   1.522
 3574SOL    HW210779   4.697   0.386   1.472
 3575SOL     OW10780   2.841   1.155   3.032
 3575SOL    HW110781   2.814   1.135   3.121
 3575SOL    HW210782   2.759   1.162   2.983
 3576SOL     OW10783   0.066   2.878   2.838
 3576SOL    HW110784   4.949   2.848   2.802
 3576SOL    HW210785   0.126   2.876   2.763
 3577SOL     OW10786   4.136   3.437   4.887
 3577SOL    HW110787   4.064   3.421   4.825
 3577SOL    HW210788   4.096   3.487   4.958
 3578SOL     OW10789   1.139   2.084   2.296
 3578SOL    HW110790   1.050   2.050   2.289
 3578SOL    HW210791   1.147   2.114   2.386
 3579SOL     OW10792   0.547   4.749   3.661
 3579SOL    HW110793   0.496   4.779   3.586
 3579SOL    HW210794   0.524   4.808   3.732
 3580SOL     OW10795   4.157   1.631   1.024
 3580SOL    HW110796   4.239   1.596   0.989
 3580SOL    HW210797   4.090   1.570   0.993
 3581SOL     OW10798   3.130   0.346   1.205
 3581SOL    HW110799   3.083   0.363   1.287
 3581SOL    HW210800   3.090   0.266   1.171
 3582SOL     OW10801   2.762   0.771   4.014
 3582SOL    HW110802   2.770   0.841   3.949
 3582SOL    HW210803   2.761   0.816   4.098
 3583SOL     OW10804   1.158   1.247   4.049
 3583SOL    HW110805   1.091   1.309   4.020
 3583SOL    HW210806   1.108   1.171   4.080
 3584SOL     OW10807   0.724   1.860   2.221
 3584SOL    HW110808   0.790   1.895   2.280
 3584SOL    HW210809   0.772   1.833   2.144
 3585SOL     OW10810   3.751   3.228   1.996
 3585SOL    HW110811   3.786   3.278   2.070
 3585SOL    HW210812   3.745   3.291   1.924
 3586SOL     OW10813   3.996   4.419   0.420
 3586SOL    HW110814   4.012   4.377   0.335
 3586SOL    HW210815   3.976   4.346   0.479
 3587SOL     OW10816   4.338   0.464   4.493
 3587SOL    HW110817   4.391   0.391   4.524
 3587SOL    HW210818   4.402   0.529   4.464
 3588SOL     OW10819   0.578   0.926   1.983
 3588SOL    HW110820   0.500   0.873   1.996
 3588SOL    HW210821   0.572   0.955   1.892
 3589SOL     OW10822   2.500   1.377   3.300
 3589SOL    HW110823   2.506   1.366   3.395
 3589SOL    HW210824   2.591   1.368   3.269
 3590SOL     OW10825   2.539   4.488   2.701
 3590SOL    HW110826   2.591   4.510   2.624
 3590SOL    HW210827   2.604   4.471   2.769
 3591SOL     OW10828   2.419   1.164   4.535
 3591SOL    HW110829   2.365   1.105   4.588
 3591SOL    HW210830   2.428   1.243   4.588
 3592SOL     OW10831   2.651   0.317   2.484
 3592SOL    HW110832   2.594   0.247   2.515
 3592SOL    HW210833   2.688   0.283   2.402
 3593SOL     OW10834   0.152   3.430   0.864
 3593SOL    HW110835   0.181   3.414   0.774
 3593SOL    HW210836   0.071   3.381   0.872
 3594SOL     OW10837   4.289   4.848   0.453
 3594SOL    HW110838   4.210   4.865   0.504
 3594SOL    HW210839   4.307   4.930   0.408
 3595SOL     OW10840   4.441   3.876   4.782
 3595SOL    HW110841   4.423   3.855   4.690
 3595SOL    HW210842   4.537   3.873   4.788
 3596SOL     OW10843   4.389   4.447   3.048
 3596SOL    HW110844   4.436   4.523   3.084
 3596SOL    HW210845   4.314   4.485   3.003
 3597SOL     OW10846   0.123   4.908   0.315
 3597SOL    HW110847   0.147   4.888   0.406
 3597SOL    HW210848   0.040   4.954   0.321
 3598SOL     OW10849   3.438   1.910   4.905
 3598SOL    HW110850   3.463   1.826   4.866
 3598SOL    HW210851   3.512   1.968   4.888
 3599SOL     OW10852   2.759   2.591   0.923
 3599SOL    HW110853   2.673   2.552   0.910
 3599SOL    HW210854   2.821   2.519   0.913
 3600SOL     OW10855   3.932   3.474   0.364
 3600SOL    HW110856   3.848   3.511   0.392
 3600SOL    HW210857   3.991   3.490   0.438
 3601SOL     OW10858   0.094   0.927   0.457
 3601SOL    HW110859   0.005   0.960   0.443
 3601SOL    HW210860   0.085   0.864   0.528
 3602SOL     OW10861   0.671   2.097   4.189
 3602SOL    HW110862   0.652   2.074   4.280
 3602SOL    HW210863   0.746   2.156   4.193
 3603SOL     OW10864   2.393   0.109   0.879
 3603SOL    HW110865   2.399   0.095   0.973
 3603SOL    HW210866   2.422   0.026   0.841
 3604SOL     OW10867   3.624   3.005   4.576
 3604SOL    HW110868   3.711   2.974   4.600
 3604SOL    HW210869   3.601   2.955   4.498
 3605SOL     OW10870   4.957   1.171   2.116
 3605SOL    HW110871   4.909   1.254   2.119
 3605SOL    HW210872   4.893   1.106   2.144
 3606SOL     OW10873   3.295   0.992   2.717
 3606SOL    HW110874   3.203   0.968   2.721
 3606SOL    HW210875   3.304   1.037   2.633
 3607SOL     OW10876   4.908   1.819   0.516
 3607SOL    HW110877   4.836   1.772   0.475
 3607SOL    HW210878   4.870   1.857   0.596
 3608SOL     OW10879   1.635   0.777   2.920
 3608SOL    HW110880   1.707   0.835   2.945
 3608SOL    HW210881   1.678   0.699   2.885
 3609SOL     OW10882   3.846   1.622   3.121
 3609SOL    HW110883   3.917   1.658   3.067
 3609SOL    HW210884   3.844   1.529   3.098
 3610SOL     OW10885   0.574   2.947   2.829
 3610SOL    HW110886   0.495   2.893   2.841
 3610SOL    HW210887   0.549   3.011   2.762
 3611SOL     OW10888   4.232   2.888   3.187
 3611SOL    HW110889   4.260   2.958   3.129
 3611SOL    HW210890   4.137   2.899   3.195
 3612SOL     OW10891   0.741   4.062   1.499
 3612SOL    HW110892   0.821   4.099   1.537
 3612SOL    HW210893   0.703   4.135   1.449
 3613SOL     OW10894   1.615   1.982   1.082
 3613SOL    HW110895   1.632   1.891   1.059
 3613SOL    HW210896   1.641   2.031   1.005
 3614SOL     OW10897   2.976   0.381   2.051
 3614SOL    HW110898   3.038   0.354   2.119
 3614SOL    HW210899   2.944   0.299   2.014
 3615SOL     OW10900   1.514   3.272   0.188
 3615SOL    HW110901   1.419   3.260   0.194
 3615SOL    HW210902   1.531   3.353   0.236
 3616SOL     OW10903   1.005   4.897   3.357
 3616SOL    HW110904   1.091   4.888   3.316
 3616SOL    HW210905   0.987   0.024   3.355
 3617SOL     OW10906   2.194   1.368   0.822
 3617SOL    HW110907   2.155   1.446   0.782
 3617SOL    HW210908   2.155   1.295   0.775
 3618SOL     OW10909   3.514   2.406   2.749
 3618SOL    HW110910   3.426   2.442   2.742
 3618SOL    HW210911   3.534   2.408   2.843
 3619SOL     OW10912   3.793   1.828   0.045
 3619SOL    HW110913   3.726   1.767   0.076
 3619SOL    HW210914   3.852   1.840   0.119
 3620SOL     OW10915   4.701   3.600   0.614
 3620SOL    HW110916   4.717   3.678   0.561
 3620SOL    HW210917   4.721   3.627   0.704
 3621SOL     OW10918   4.159   0.465   0.946
 3621SOL    HW110919   4.249   0.451   0.975
 3621SOL    HW210920   4.119   0.379   0.951
 3622SOL     OW10921   0.107   4.177   1.716
 3622SOL    HW110922   0.026   4.137   1.687
 3622SOL    HW210923   0.176   4.125   1.675
 3623SOL     OW10924   4.267   4.425   0.617
 3623SOL    HW110925   4.360   4.444   0.631
 3623SOL    HW210926   4.254   4.339   0.657
 3624SOL     OW10927   0.532   3.940   3.641
 3624SOL    HW110928   0.572   3.973   3.561
 3624SOL    HW210929   0.595   3.960   3.710
 3625SOL     OW10930   4.535   2.213   0.896
 3625SOL    HW110931   4.616   2.236   0.941
 3625SOL    HW210932   4.544   2.251   0.809
 3626SOL     OW10933   1.082   2.424   2.132
 3626SOL    HW110934   1.051   2.428   2.042
 3626SOL    HW210935   1.177   2.417   2.123
 3627SOL     OW10936   0.803   2.935   1.116
 3627SOL    HW110937   0.834   2.858   1.069
 3627SOL    HW210938   0.708   2.932   1.108
 3628SOL     OW10939   1.236   4.293   0.888
 3628SOL    HW110940   1.156   4.341   0.867
 3628SOL    HW210941   1.296   4.314   0.816
 3629SOL     OW10942   4.213   1.564   2.201
 3629SOL    HW110943   4.230   1.480   2.243
 3629SOL    HW210944   4.241   1.552   2.110
 3630SOL     OW10945   3.340   3.518   0.650
 3630SOL    HW110946   3.248   3.539   0.665
 3630SOL    HW210947   3.341   3.463   0.572
 3631SOL     OW10948   3.655   0.726   1.732
 3631SOL    HW110949   3.594   0.752   1.663
 3631SOL    HW210950   3.605   0.666   1.787
 3632SOL     OW10951   1.521   2.047   4.110
 3632SOL    HW110952   1.587   2.013   4.170
 3632SOL    HW210953   1.452   2.081   4.167
 3633SOL     OW10954   0.572   2.793   1.025
 3633SOL    HW110955   0.485   2.799   1.064
 3633SOL    HW210956   0.605   2.707   1.051
 3634SOL     OW10957   3.492   4.583   3.610
 3634SOL    HW110958   3.436   4.560   3.684
 3634SOL    HW210959   3.577   4.545   3.631
 3635SOL     OW10960   3.047   2.720   3.610
 3635SOL    HW110961   3.069   2.753   3.697
 3635SOL    HW210962   2.964   2.761   3.589
 3636SOL     OW10963   2.999   1.770   4.777
 3636SOL    HW110964   3.070   1.805   4.830
 3636SOL    HW210965   3.034   1.690   4.739
 3637SOL     OW10966   2.604   0.827   3.205
 3637SOL    HW110967   2.671   0.773   3.247
 3637SOL    HW210968   2.606   0.800   3.113
 3638SOL     OW10969   0.226   2.487   0.284
 3638SOL    HW110970   0.253   2.565   0.333
 3638SOL    HW210971   0.146   2.514   0.239
 3639SOL     OW10972   0.036   4.658   3.945
 3639SOL    HW110973   4.954   4.700   3.873
 3639SOL    HW210974   0.073   4.732   3.994
 3640SOL     OW10975   4.584   0.405   3.228
 3640SOL    HW110976   4.545   0.427   3.313
 3640SOL    HW210977   4.561   0.480   3.172
 3641SOL     OW10978   4.594   3.850   0.133
 3641SOL    HW110979   4.678   3.809   0.111
 3641SOL    HW210980   4.616   3.914   0.201
 3642SOL     OW10981   2.006   4.721   0.305
 3642SOL    HW110982   1.922   4.691   0.270
 3642SOL    HW210983   2.071   4.677   0.250
 3643SOL     OW10984   1.763   2.248   4.176
 3643SOL    HW110985   1.837   2.294   4.137
 3643SOL    HW210986   1.774   2.157   4.149
 3644SOL     OW10987   3.140   1.576   0.466
 3644SOL    HW110988   3.160   1.550   0.376
 3644SOL    HW210989   3.222   1.561   0.514
 3645SOL     OW10990   3.200   0.250   2.996
 3645SOL    HW110991   3.260   0.212   3.061
 3645SOL    HW210992   3.254   0.262   2.918
 3646SOL     OW10993   2.561   4.721   3.697
 3646SOL    HW110994   2.547   4.670   3.777
 3646SOL    HW210995   2.501   4.794   3.703
 3647SOL     OW10996   3.182   3.435   2.953
 3647SOL    HW110997   3.226   3.410   3.034
 3647SOL    HW210998   3.091   3.446   2.977
 3648SOL     OW10999   2.910   3.057   4.751
 3648SOL    HW111000   2.872   3.040   4.837
 3648SOL    HW211001   2.971   3.129   4.766
 3649SOL     OW11002   2.167   0.791   1.440
 3649SOL    HW111003   2.117   0.731   1.384
 3649SOL    HW211004   2.178   0.744   1.522
 3650SOL     OW11005   1.292   2.694   0.298
 3650SOL    HW111006   1.359   2.671   0.363
 3650SOL    HW211007   1.213   2.709   0.350
 3651SOL     OW11008   1.831   0.936   2.989
 3651SOL    HW111009   1.877   0.937   2.906
 3651SOL    HW211010   1.826   1.028   3.015
 3652SOL     OW11011   4.351   4.420   1.057
 3652SOL    HW111012   4.299   4.404   1.136
 3652SOL    HW211013   4.434   4.455   1.090
 3653SOL     OW11014   0.068   2.574   1.658
 3653SOL    HW111015   0.029   2.486   1.654
 3653SOL    HW211016   0.104   2.580   1.746
 3654SOL     OW11017   1.739   0.465   3.019
 3654SOL    HW111018   1.727   0.517   3.099
 3654SOL    HW211019   1.655   0.420   3.007
 3655SOL     OW11020   0.533   4.011   2.137
 3655SOL    HW111021   0.444   4.024   2.170
 3655SOL    HW211022   0.531   4.041   2.047
 3656SOL     OW11023   2.536   2.962   0.724
 3656SOL    HW111024   2.594   3.026   0.765
 3656SOL    HW211025   2.448   2.993   0.743
 3657SOL     OW11026   2.223   1.780   2.945
 3657SOL    HW111027   2.128   1.764   2.942
 3657SOL    HW211028   2.230   1.875   2.957
 3658SOL     OW11029   4.564   0.293   3.574
 3658SOL    HW111030   4.658   0.297   3.553
 3658SOL    HW211031   4.528   0.372   3.533
 3659SOL     OW11032   2.165   1.683   2.474
 3659SOL    HW111033   2.208   1.767   2.487
 3659SOL    HW211034   2.083   1.690   2.524
 3660SOL     OW11035   0.658   2.611   3.792
 3660SOL    HW111036   0.640   2.535   3.738
 3660SOL    HW211037   0.596   2.677   3.763
 3661SOL     OW11038   2.159   3.430   1.955
 3661SOL    HW111039   2.069   3.402   1.968
 3661SOL    HW211040   2.161   3.520   1.986
 3662SOL     OW11041   4.868   1.973   4.602
 3662SOL    HW111042   4.823   2.025   4.668
 3662SOL    HW211043   4.847   1.882   4.624
 3663SOL     OW11044   3.997   1.358   0.645
 3663SOL    HW111045   3.997   1.397   0.732
 3663SOL    HW211046   4.064   1.290   0.649
 3664SOL     OW11047   1.804   1.555   2.979
 3664SOL    HW111048   1.865   1.573   2.907
 3664SOL    HW211049   1.854   1.573   3.058
 3665SOL     OW11050   4.441   0.537   4.002
 3665SOL    HW111051   4.397   0.610   3.957
 3665SOL    HW211052   4.534   0.550   3.983
 3666SOL     OW11053   0.040   1.692   1.571
 3666SOL    HW111054   0.111   1.628   1.562
 3666SOL    HW211055   0.081   1.776   1.550
 3667SOL     OW11056   2.743   0.065   3.063
 3667SOL    HW111057   2.817   0.035   3.011
 3667SOL    HW211058   2.764   0.039   3.153
 3668SOL     OW11059   4.952   2.202   2.911
 3668SOL    HW111060   0.044   2.268   2.946
 3668SOL    HW211061   4.874   2.207   2.966
 3669SOL     OW11062   4.386   4.602   1.925
 3669SOL    HW111063   4.444   4.558   1.988
 3669SOL    HW211064   4.423   4.690   1.916
 3670SOL     OW11065   2.101   3.166   1.664
 3670SOL    HW111066   2.070   3.080   1.634
 3670SOL    HW211067   2.180   3.182   1.612
 3671SOL     OW11068   3.156   0.183   0.849
 3671SOL    HW111069   3.157   0.251   0.783
 3671SOL    HW211070   3.237   0.196   0.899
 3672SOL     OW11071   2.937   4.534   4.055
 3672SOL    HW111072   3.021   4.579   4.061
 3672SOL    HW211073   2.877   4.589   4.105
 3673SOL     OW11074   4.385   4.121   4.446
 3673SOL    HW111075   4.337   4.039   4.433
 3673SOL    HW211076   4.477   4.096   4.439
 3674SOL     OW11077   2.472   2.878   0.153
 3674SOL    HW111078   2.472   2.973   0.144
 3674SOL    HW211079   2.561   2.856   0.182
 3675SOL     OW11080   3.235   3.591   3.991
 3675SOL    HW111081   3.253   3.642   3.911
 3675SOL    HW211082   3.288   3.634   4.059
 3676SOL     OW11083   2.954   4.339   2.304
 3676SOL    HW111084   2.952   4.344   2.209
 3676SOL    HW211085   3.001   4.418   2.331
 3677SOL     OW11086   3.426   0.051   2.914
 3677SOL    HW111087   3.415   0.094   2.999
 3677SOL    HW211088   3.505   0.090   2.878
 3678SOL     OW11089   4.184   3.435   3.960
 3678SOL    HW111090   4.123   3.441   3.886
 3678SOL    HW211091   4.151   3.361   4.012
 3679SOL     OW11092   1.599   0.804   3.796
 3679SOL    HW111093   1.523   0.752   3.822
 3679SOL    HW211094   1.647   0.819   3.877
 3680SOL     OW11095   4.496   1.225   3.372
 3680SOL    HW111096   4.547   1.165   3.318
 3680SOL    HW211097   4.550   1.239   3.450
 3681SOL     OW11098   4.094   3.798   1.552
 3681SOL    HW111099   4.179   3.763   1.527
 3681SOL    HW211100   4.109   3.838   1.638
 3682SOL     OW11101   0.526   1.909   1.898
 3682SOL    HW111102   0.508   1.847   1.827
 3682SOL    HW211103   0.579   1.858   1.960
 3683SOL     OW11104   2.112   3.189   4.717
 3683SOL    HW111105   2.134   3.275   4.754
 3683SOL    HW211106   2.059   3.209   4.640
 3684SOL     OW11107   3.903   1.965   2.298
 3684SOL    HW111108   3.819   1.919   2.310
 3684SOL    HW211109   3.958   1.902   2.250
 3685SOL     OW11110   2.529   2.100   1.247
 3685SOL    HW111111   2.540   2.027   1.186
 3685SOL    HW211112   2.614   2.145   1.245
 3686SOL     OW11113   2.305   0.386   1.984
 3686SOL    HW111114   2.324   0.377   1.891
 3686SOL    HW211115   2.372   0.331   2.027
 3687SOL     OW11116   4.832   0.041   0.280
 3687SOL    HW111117   4.824   0.028   0.185
 3687SOL    HW211118   4.742   0.057   0.309
 3688SOL     OW11119   2.142   4.697   4.848
 3688SOL    HW111120   2.064   4.663   4.890
 3688SOL    HW211121   2.110   4.761   4.785
 3689SOL     OW11122   2.201   4.754   3.945
 3689SOL    HW111123   2.136   4.805   3.896
 3689SOL    HW211124   2.237   4.693   3.881
 3690SOL     OW11125   3.142   3.383   1.397
 3690SOL    HW111126   3.101   3.337   1.470
 3690SOL    HW211127   3.229   3.344   1.389
 3691SOL     OW11128   0.385   1.391   1.625
 3691SOL    HW111129   0.452   1.354   1.567
 3691SOL    HW211130   0.370   1.323   1.691
 3692SOL     OW11131   4.758   3.946   0.789
 3692SOL    HW111132   4.807   3.933   0.708
 3692SOL    HW211133   4.782   3.871   0.843
 3693SOL     OW11134   1.309   3.222   0.830
 3693SOL    HW111135   1.386   3.214   0.886
 3693SOL    HW211136   1.331   3.292   0.769
 3694SOL     OW11137   2.943   1.074   0.113
 3694SOL    HW111138   2.856   1.112   0.126
 3694SOL    HW211139   2.927   0.982   0.092
 3695SOL     OW11140   1.732   0.806   1.929
 3695SOL    HW111141   1.762   0.726   1.885
 3695SOL    HW211142   1.696   0.860   1.859
 3696SOL     OW11143   4.735   1.215   0.558
 3696SOL    HW111144   4.807   1.180   0.609
 3696SOL    HW211145   4.664   1.229   0.621
 3697SOL     OW11146   2.348   0.691   1.677
 3697SOL    HW111147   2.410   0.687   1.604
 3697SOL    HW211148   2.399   0.665   1.754
 3698SOL     OW11149   3.814   3.818   4.100
 3698SOL    HW111150   3.840   3.737   4.056
 3698SOL    HW211151   3.888   3.877   4.087
 3699SOL     OW11152   3.343   2.353   2.018
 3699SOL    HW111153   3.344   2.426   2.081
 3699SOL    HW211154   3.410   2.377   1.954
 3700SOL     OW11155   1.178   0.062   3.909
 3700SOL    HW111156   1.200   0.155   3.907
 3700SOL    HW211157   1.185   0.038   4.001
 3701SOL     OW11158   3.091   3.437   0.059
 3701SOL    HW111159   3.113   3.527   0.035
 3701SOL    HW211160   3.046   3.445   0.144
 3702SOL     OW11161   3.145   2.455   4.869
 3702SOL    HW111162   3.098   2.536   4.889
 3702SOL    HW211163   3.131   2.399   4.945
 3703SOL     OW11164   2.915   2.193   4.456
 3703SOL    HW111165   2.964   2.180   4.375
 3703SOL    HW211166   2.869   2.276   4.443
 3704SOL     OW11167   1.439   2.129   2.999
 3704SOL    HW111168   1.481   2.162   3.078
 3704SOL    HW211169   1.347   2.122   3.021
 3705SOL     OW11170   3.883   2.211   1.913
 3705SOL    HW111171   3.808   2.186   1.859
 3705SOL    HW211172   3.940   2.134   1.912
 3706SOL     OW11173   2.453   0.473   1.210
 3706SOL    HW111174   2.455   0.447   1.118
 3706SOL    HW211175   2.418   0.562   1.208
 3707SOL     OW11176   3.814   1.179   1.809
 3707SOL    HW111177   3.796   1.169   1.902
 3707SOL    HW211178   3.905   1.152   1.799
 3708SOL     OW11179   4.869   2.531   1.370
 3708SOL    HW111180   4.923   2.527   1.291
 3708SOL    HW211181   4.903   2.461   1.426
 3709SOL     OW11182   1.970   1.294   4.506
 3709SOL    HW111183   1.918   1.310   4.584
 3709SOL    HW211184   1.977   1.199   4.501
 3710SOL     OW11185   1.399   2.280   3.872
 3710SOL    HW111186   1.436   2.287   3.960
 3710SOL    HW211187   1.464   2.320   3.815
 3711SOL     OW11188   4.879   0.594   4.239
 3711SOL    HW111189   4.909   0.583   4.149
 3711SOL    HW211190   4.860   0.505   4.269
 3712SOL     OW11191   2.989   2.506   0.720
 3712SOL    HW111192   3.026   2.582   0.764
 3712SOL    HW211193   3.054   2.482   0.655
 3713SOL     OW11194   4.339   2.718   3.004
 3713SOL    HW111195   4.279   2.688   2.936
 3713SOL    HW211196   4.282   2.754   3.072
 3714SOL     OW11197   2.092   0.587   2.233
 3714SOL    HW111198   2.143   0.601   2.153
 3714SOL    HW211199   2.097   0.670   2.280
 3715SOL     OW11200   0.547   2.279   0.883
 3715SOL    HW111201   0.553   2.190   0.916
 3715SOL    HW211202   0.481   2.275   0.814
 3716SOL     OW11203   0.641   1.199   0.004
 3716SOL    HW111204   0.624   1.227   0.094
 3716SOL    HW211205   0.580   1.250   4.917
 3717SOL     OW11206   4.901   3.267   0.897
 3717SOL    HW111207   4.856   3.279   0.813
 3717SOL    HW211208   4.867   3.183   0.929
 3718SOL     OW11209   2.144   4.196   0.168
 3718SOL    HW111210   2.077   4.140   0.128
 3718SOL    HW211211   2.153   4.269   0.107
 3719SOL     OW11212   4.117   1.540   4.506
 3719SOL    HW111213   4.045   1.574   4.453
 3719SOL    HW211214   4.155   1.618   4.547
 3720SOL     OW11215   3.383   1.079   3.273
 3720SOL    HW111216   3.300   1.060   3.229
 3720SOL    HW211217   3.445   1.093   3.202
 3721SOL     OW11218   4.555   0.802   1.878
 3721SOL    HW111219   4.528   0.757   1.958
 3721SOL    HW211220   4.500   0.764   1.809
 3722SOL     OW11221   0.402   4.393   4.571
 3722SOL    HW111222   0.433   4.483   4.562
 3722SOL    HW211223   0.350   4.393   4.651
 3723SOL     OW11224   1.259   3.797   0.237
 3723SOL    HW111225   1.348   3.828   0.252
 3723SOL    HW211226   1.267   3.734   0.165
 3724SOL     OW11227   3.784   4.474   2.272
 3724SOL    HW111228   3.723   4.451   2.342
 3724SOL    HW211229   3.769   4.567   2.256
 3725SOL     OW11230   1.581   1.325   3.423
 3725SOL    HW111231   1.637   1.397   3.396
 3725SOL    HW211232   1.576   1.268   3.346
 3726SOL     OW11233   1.682   3.168   4.747
 3726SOL    HW111234   1.738   3.185   4.671
 3726SOL    HW211235   1.600   3.135   4.710
 3727SOL     OW11236   3.766   2.778   4.854
 3727SOL    HW111237   3.805   2.857   4.889
 3727SOL    HW211238   3.778   2.784   4.760
 3728SOL     OW11239   2.976   2.141   0.214
 3728SOL    HW111240   2.917   2.167   0.144
 3728SOL    HW211241   2.932   2.067   0.257
 3729SOL     OW11242   1.665   3.658   1.805
 3729SOL    HW111243   1.579   3.664   1.847
 3729SOL    HW211244   1.681   3.564   1.796
 3730SOL     OW11245   0.660   2.576   3.178
 3730SOL    HW111246   0.565   2.574   3.170
 3730SOL    HW211247   0.682   2.495   3.223
 3731SOL     OW11248   4.844   1.661   3.105
 3731SOL    HW111249   4.866   1.658   3.198
 3731SOL    HW211250   4.772   1.724   3.099
 3732SOL     OW11251   2.702   4.959   0.979
 3732SOL    HW111252   2.657   4.966   1.063
 3732SOL    HW211253   2.752   0.073   0.971
 3733SOL     OW11254   1.363   3.657   1.642
 3733SOL    HW111255   1.283   3.706   1.657
 3733SOL    HW211256   1.434   3.721   1.654
 3734SOL     OW11257   1.811   2.731   1.951
 3734SOL    HW111258   1.772   2.805   1.998
 3734SOL    HW211259   1.899   2.762   1.928
 3735SOL     OW11260   3.312   1.508   0.268
 3735SOL    HW111261   3.281   1.524   0.179
 3735SOL    HW211262   3.329   1.414   0.271
 3736SOL     OW11263   2.803   0.066   3.797
 3736SOL    HW111264   2.752   0.098   3.872
 3736SOL    HW211265   2.844   4.952   3.829
 3737SOL     OW11266   4.553   1.470   3.849
 3737SOL    HW111267   4.520   1.500   3.934
 3737SOL    HW211268   4.476   1.440   3.802
 3738SOL     OW11269   1.807   3.980   1.054
 3738SOL    HW111270   1.867   3.951   1.123
 3738SOL    HW211271   1.851   4.055   1.014
 3739SOL     OW11272   4.883   1.317   2.810
 3739SOL    HW111273   0.003   1.320   2.852
 3739SOL    HW211274   4.883   1.390   2.749
 3740SOL     OW11275   0.545   4.073   1.145
 3740SOL    HW111276   0.495   4.130   1.086
 3740SOL    HW211277   0.630   4.116   1.154
 3741SOL     OW11278   0.953   1.191   2.763
 3741SOL    HW111279   0.968   1.107   2.807
 3741SOL    HW211280   0.932   1.167   2.672
 3742SOL     OW11281   3.809   1.399   4.466
 3742SOL    HW111282   3.868   1.377   4.539
 3742SOL    HW211283   3.788   1.314   4.427
 3743SOL     OW11284   2.094   0.391   4.343
 3743SOL    HW111285   2.130   0.439   4.418
 3743SOL    HW211286   2.021   0.444   4.313
 3744SOL     OW11287   0.049   3.358   0.083
 3744SOL    HW111288   4.963   3.399   0.151
 3744SOL    HW211289   4.954   3.302   0.036
 3745SOL     OW11290   0.244   3.743   1.241
 3745SOL    HW111291   0.224   3.680   1.310
 3745SOL    HW211292   0.291   3.691   1.175
 3746SOL     OW11293   4.767   2.442   4.608
 3746SOL    HW111294   4.749   2.436   4.514
 3746SOL    HW211295   4.681   2.443   4.649
 3747SOL     OW11296   3.634   1.899   2.316
 3747SOL    HW111297   3.544   1.929   2.327
 3747SOL    HW211298   3.655   1.854   2.397
 3748SOL     OW11299   2.217   1.568   4.841
 3748SOL    HW111300   2.300   1.531   4.872
 3748SOL    HW211301   2.210   1.539   4.750
 3749SOL     OW11302   4.672   1.798   0.882
 3749SOL    HW111303   4.685   1.724   0.822
 3749SOL    HW211304   4.715   1.771   0.963
 3750SOL     OW11305   3.549   4.415   1.546
 3750SOL    HW111306   3.479   4.366   1.503
 3750SOL    HW211307   3.628   4.364   1.528
 3751SOL     OW11308   2.695   4.033   0.881
 3751SOL    HW111309   2.668   4.049   0.972
 3751SOL    HW211310   2.757   4.102   0.862
 3752SOL     OW11311   2.020   2.002   0.979
 3752SOL    HW111312   2.014   1.949   0.899
 3752SOL    HW211313   1.957   2.072   0.965
 3753SOL     OW11314   2.997   2.449   4.341
 3753SOL    HW111315   2.990   2.465   4.436
 3753SOL    HW211316   3.087   2.418   4.330
 3754SOL     OW11317   4.467   0.235   0.541
 3754SOL    HW111318   4.554   0.254   0.575
 3754SOL    HW211319   4.446   0.310   0.485
 3755SOL     OW11320   3.157   2.996   1.409
 3755SOL    HW111321   3.125   2.911   1.378
 3755SOL    HW211322   3.182   3.043   1.329
 3756SOL     OW11323   2.850   4.804   1.874
 3756SOL    HW111324   2.926   4.861   1.881
 3756SOL    HW211325   2.779   4.862   1.847
 3757SOL     OW11326   0.691   0.953   4.909
 3757SOL    HW111327   0.784   0.934   4.919
 3757SOL    HW211328   0.683   1.045   4.931
 3758SOL     OW11329   1.530   4.470   4.342
 3758SOL    HW111330   1.495   4.556   4.366
 3758SOL    HW211331   1.572   4.484   4.257
 3759SOL     OW11332   4.021   0.946   1.754
 3759SOL    HW111333   4.029   0.875   1.817
 3759SOL    HW211334   4.112   0.969   1.734
 3760SOL     OW11335   2.218   3.554   3.866
 3760SOL    HW111336   2.286   3.508   3.915
 3760SOL    HW211337   2.212   3.640   3.907
 3761SOL     OW11338   4.714   1.439   1.960
 3761SOL    HW111339   4.701   1.362   1.904
 3761SOL    HW211340   4.788   1.485   1.920
 3762SOL     OW11341   3.973   4.014   4.013
 3762SOL    HW111342   4.043   4.054   4.064
 3762SOL    HW211343   3.952   4.080   3.946
 3763SOL     OW11344   2.110   0.330   4.011
 3763SOL    HW111345   2.124   0.423   4.025
 3763SOL    HW211346   2.120   0.291   4.098
 3764SOL     OW11347   4.573   2.637   4.818
 3764SOL    HW111348   4.533   2.572   4.761
 3764SOL    HW211349   4.603   2.706   4.759
 3765SOL     OW11350   1.817   0.409   2.546
 3765SOL    HW111351   1.861   0.490   2.569
 3765SOL    HW211352   1.778   0.378   2.628
 3766SOL     OW11353   0.791   3.068   2.503
 3766SOL    HW111354   0.776   2.974   2.506
 3766SOL    HW211355   0.795   3.094   2.595
 3767SOL     OW11356   2.204   0.627   0.451
 3767SOL    HW111357   2.169   0.717   0.448
 3767SOL    HW211358   2.143   0.580   0.509
 3768SOL     OW11359   0.314   1.534   0.108
 3768SOL    HW111360   0.388   1.583   0.143
 3768SOL    HW211361   0.239   1.563   0.160
 3769SOL     OW11362   2.751   1.582   0.222
 3769SOL    HW111363   2.683   1.587   0.155
 3769SOL    HW211364   2.774   1.672   0.241
 3770SOL     OW11365   3.014   2.944   3.422
 3770SOL    HW111366   3.089   2.913   3.371
 3770SOL    HW211367   3.044   2.943   3.512
 3771SOL     OW11368   0.784   0.573   4.308
 3771SOL    HW111369   0.869   0.617   4.295
 3771SOL    HW211370   0.724   0.644   4.331
 3772SOL     OW11371   1.172   2.862   4.914
 3772SOL    HW111372   1.239   2.843   0.013
 3772SOL    HW211373   1.090   2.862   4.963
 3773SOL     OW11374   2.216   2.979   2.833
 3773SOL    HW111375   2.272   2.914   2.791
 3773SOL    HW211376   2.188   3.036   2.762
 3774SOL     OW11377   2.549   2.850   1.541
 3774SOL    HW111378   2.492   2.793   1.593
 3774SOL    HW211379   2.571   2.798   1.464
 3775SOL     OW11380   3.291   3.287   3.201
 3775SOL    HW111381   3.226   3.302   3.269
 3775SOL    HW211382   3.351   3.222   3.238
 3776SOL     OW11383   2.689   4.622   3.472
 3776SOL    HW111384   2.762   4.681   3.453
 3776SOL    HW211385   2.657   4.651   3.557
 3777SOL     OW11386   4.024   0.220   2.119
 3777SOL    HW111387   4.055   0.183   2.036
 3777SOL    HW211388   3.944   0.266   2.096
 3778SOL     OW11389   1.683   4.503   3.089
 3778SOL    HW111390   1.716   4.547   3.010
 3778SOL    HW211391   1.725   4.550   3.161
 3779SOL     OW11392   0.498   1.644   4.365
 3779SOL    HW111393   0.573   1.669   4.311
 3779SOL    HW211394   0.524   1.561   4.405
 3780SOL     OW11395   3.641   3.503   0.471
 3780SOL    HW111396   3.561   3.554   0.452
 3780SOL    HW211397   3.615   3.412   0.456
 3781SOL     OW11398   1.344   4.158   4.007
 3781SOL    HW111399   1.401   4.116   4.071
 3781SOL    HW211400   1.398   4.227   3.968
 3782SOL     OW11401   0.615   2.322   1.311
 3782SOL    HW111402   0.674   2.296   1.382
 3782SOL    HW211403   0.549   2.253   1.308
 3783SOL     OW11404   1.499   0.872   2.674
 3783SOL    HW111405   1.519   0.850   2.765
 3783SOL    HW211406   1.579   0.850   2.626
 3784SOL     OW11407   3.663   1.460   2.082
 3784SOL    HW111408   3.739   1.414   2.046
 3784SOL    HW211409   3.646   1.417   2.165
 3785SOL     OW11410   4.632   4.441   3.359
 3785SOL    HW111411   4.672   4.358   3.333
 3785SOL    HW211412   4.706   4.499   3.377
 3786SOL     OW11413   2.325   3.436   2.647
 3786SOL    HW111414   2.287   3.395   2.725
 3786SOL    HW211415   2.266   3.508   2.627
 3787SOL     OW11416   1.470   1.352   1.117
 3787SOL    HW111417   1.547   1.376   1.168
 3787SOL    HW211418   1.443   1.433   1.075
 3788SOL     OW11419   1.648   1.742   0.983
 3788SOL    HW111420   1.684   1.654   0.997
 3788SOL    HW211421   1.688   1.771   0.901
 3789SOL     OW11422   3.482   3.146   0.197
 3789SOL    HW111423   3.437   3.099   0.127
 3789SOL    HW211424   3.459   3.238   0.183
 3790SOL     OW11425   1.933   4.088   2.045
 3790SOL    HW111426   1.924   4.007   1.996
 3790SOL    HW211427   1.991   4.065   2.118
 3791SOL     OW11428   4.942   1.888   4.959
 3791SOL    HW111429   4.965   1.942   4.883
 3791SOL    HW211430   0.035   1.916   0.061
 3792SOL     OW11431   2.110   0.933   2.234
 3792SOL    HW111432   2.065   0.910   2.153
 3792SOL    HW211433   2.198   0.958   2.205
 3793SOL     OW11434   0.868   2.511   1.641
 3793SOL    HW111435   0.790   2.565   1.630
 3793SOL    HW211436   0.941   2.572   1.628
 3794SOL     OW11437   1.730   4.698   0.260
 3794SOL    HW111438   1.699   4.778   0.218
 3794SOL    HW211439   1.688   4.627   0.211
 3795SOL     OW11440   2.395   4.126   2.103
 3795SOL    HW111441   2.341   4.192   2.059
 3795SOL    HW211442   2.447   4.087   2.033
 3796SOL     OW11443   0.965   4.733   0.963
 3796SOL    HW111444   0.937   4.824   0.953
 3796SOL    HW211445   1.038   4.737   1.025
 3797SOL     OW11446   2.218   4.267   3.651
 3797SOL    HW111447   2.172   4.204   3.596
 3797SOL    HW211448   2.291   4.218   3.688
 3798SOL     OW11449   3.744   2.092   1.679
 3798SOL    HW111450   3.772   2.009   1.641
 3798SOL    HW211451   3.669   2.069   1.734
 3799SOL     OW11452   0.613   3.042   2.180
 3799SOL    HW111453   0.539   3.102   2.170
 3799SOL    HW211454   0.678   3.075   2.118
 3800SOL     OW11455   4.694   2.105   2.017
 3800SOL    HW111456   4.753   2.037   2.051
 3800SOL    HW211457   4.608   2.081   2.053
 3801SOL     OW11458   2.888   1.362   0.954
 3801SOL    HW111459   2.829   1.387   0.883
 3801SOL    HW211460   2.830   1.334   1.025
 3802SOL     OW11461   0.978   4.519   1.914
 3802SOL    HW111462   0.889   4.554   1.914
 3802SOL    HW211463   0.999   4.508   1.821
 3803SOL     OW11464   4.877   2.232   0.107
 3803SOL    HW111465   4.810   2.168   0.130
 3803SOL    HW211466   4.830   2.314   0.097
 3804SOL     OW11467   1.903   3.531   3.144
 3804SOL    HW111468   1.808   3.529   3.140
 3804SOL    HW211469   1.925   3.480   3.222
 3805SOL     OW11470   3.830   0.120   1.890
 3805SOL    HW111471   3.806   0.206   1.854
 3805SOL    HW211472   3.767   0.105   1.960
 3806SOL     OW11473   0.029   4.056   4.042
 3806SOL    HW111474   0.027   4.152   4.031
 3806SOL    HW211475   4.905   4.029   4.027
 3807SOL     OW11476   2.910   3.268   2.763
 3807SOL    HW111477   2.907   3.362   2.780
 3807SOL    HW211478   2.992   3.255   2.715
 3808SOL     OW11479   0.223   1.404   3.409
 3808SOL    HW111480   0.177   1.487   3.414
 3808SOL    HW211481   0.299   1.415   3.467
 3809SOL     OW11482   4.551   2.966   4.750
 3809SOL    HW111483   4.461   2.937   4.732
 3809SOL    HW211484   4.561   3.047   4.701
 3810SOL     OW11485   0.852   4.308   2.662
 3810SOL    HW111486   0.935   4.346   2.688
 3810SOL    HW211487   0.862   4.290   2.568
 3811SOL     OW11488   0.207   4.128   2.731
 3811SOL    HW111489   0.223   4.046   2.779
 3811SOL    HW211490   0.234   4.108   2.641
 3812SOL     OW11491   0.183   2.668   3.585
 3812SOL    HW111492   0.269   2.682   3.545
 3812SOL    HW211493   0.136   2.613   3.523
 3813SOL     OW11494   0.970   2.568   2.655
 3813SOL    HW111495   0.884   2.524   2.655
 3813SOL    HW211496   1.011   2.540   2.573
 3814SOL     OW11497   2.653   3.787   3.747
 3814SOL    HW111498   2.668   3.763   3.655
 3814SOL    HW211499   2.558   3.786   3.757
 3815SOL     OW11500   2.270   0.081   4.153
 3815SOL    HW111501   2.192   0.064   4.100
 3815SOL    HW211502   2.327   0.005   4.137
 3816SOL     OW11503   4.431   2.035   2.580
 3816SOL    HW111504   4.488   2.098   2.624
 3816SOL    HW211505   4.420   2.070   2.492
 3817SOL     OW11506   0.414   0.596   2.835
 3817SOL    HW111507   0.502   0.597   2.798
 3817SOL    HW211508   0.411   0.517   2.889
 3818SOL     OW11509   2.048   3.170   4.189
 3818SOL    HW111510   1.992   3.186   4.113
 3818SOL    HW211511   2.079   3.080   4.178
 3819SOL     OW11512   2.773   1.492   0.749
 3819SOL    HW111513   2.707   1.560   0.760
 3819SOL    HW211514   2.856   1.537   0.757
 3820SOL     OW11515   1.817   4.911   3.617
 3820SOL    HW111516   1.911   4.909   3.597
 3820SOL    HW211517   1.789   0.031   3.589
 3821SOL     OW11518   1.344   3.096   1.458
 3821SOL    HW111519   1.285   3.159   1.498
 3821SOL    HW211520   1.396   3.147   1.396
 3822SOL     OW11521   2.931   3.927   4.228
 3822SOL    HW111522   2.871   3.956   4.160
 3822SOL    HW211523   2.918   3.832   4.233
 3823SOL     OW11524   1.994   4.215   1.489
 3823SOL    HW111525   1.973   4.194   1.398
 3823SOL    HW211526   2.089   4.205   1.494
 3824SOL     OW11527   2.661   3.558   0.685
 3824SOL    HW111528   2.594   3.492   0.667
 3824SOL    HW211529   2.643   3.587   0.775
 3825SOL     OW11530   1.201   2.877   2.073
 3825SOL    HW111531   1.244   2.848   2.153
 3825SOL    HW211532   1.169   2.964   2.093
 3826SOL     OW11533   3.151   3.310   3.908
 3826SOL    HW111534   3.240   3.345   3.896
 3826SOL    HW211535   3.131   3.328   4.000
 3827SOL     OW11536   4.392   0.650   1.504
 3827SOL    HW111537   4.320   0.596   1.536
 3827SOL    HW211538   4.471   0.607   1.536
 3828SOL     OW11539   0.320   0.634   1.357
 3828SOL    HW111540   0.323   0.548   1.399
 3828SOL    HW211541   0.412   0.658   1.347
 3829SOL     OW11542   0.851   4.841   4.209
 3829SOL    HW111543   0.851   4.752   4.245
 3829SOL    HW211544   0.768   4.879   4.238
 3830SOL     OW11545   1.347   3.950   1.437
 3830SOL    HW111546   1.304   3.942   1.522
 3830SOL    HW211547   1.320   4.036   1.404
 3831SOL     OW11548   1.082   1.802   0.967
 3831SOL    HW111549   1.050   1.810   0.877
 3831SOL    HW211550   1.115   1.712   0.973
 3832SOL     OW11551   0.034   1.976   4.183
 3832SOL    HW111552   0.069   1.964   4.271
 3832SOL    HW211553   0.022   2.071   4.175
 3833SOL     OW11554   2.882   0.259   0.041
 3833SOL    HW111555   2.939   0.202   4.955
 3833SOL    HW211556   2.876   0.215   0.126
 3834SOL     OW11557   4.304   4.320   2.222
 3834SOL    HW111558   4.353   4.244   2.252
 3834SOL    HW211559   4.336   4.392   2.277
 3835SOL     OW11560   3.233   3.453   2.272
 3835SOL    HW111561   3.319   3.421   2.244
 3835SOL    HW211562   3.173   3.423   2.204
 3836SOL     OW11563   2.413   1.897   3.320
 3836SOL    HW111564   2.332   1.921   3.276
 3836SOL    HW211565   2.415   1.802   3.318
 3837SOL     OW11566   2.829   4.006   4.671
 3837SOL    HW111567   2.803   3.946   4.601
 3837SOL    HW211568   2.757   4.069   4.677
 3838SOL     OW11569   1.643   1.056   4.915
 3838SOL    HW111570   1.644   0.982   4.855
 3838SOL    HW211571   1.726   1.101   4.900
 3839SOL     OW11572   0.219   0.898   2.027
 3839SOL    HW111573   0.208   0.918   2.120
 3839SOL    HW211574   0.238   0.804   2.026
 3840SOL     OW11575   0.572   0.671   2.395
 3840SOL    HW111576   0.541   0.694   2.483
 3840SOL    HW211577   0.559   0.576   2.389
 3841SOL     OW11578   4.472   0.142   2.708
 3841SOL    HW111579   4.512   0.140   2.795
 3841SOL    HW211580   4.430   0.056   2.699
 3842SOL     OW11581   1.525   2.420   1.215
 3842SOL    HW111582   1.464   2.354   1.249
 3842SOL    HW211583   1.504   2.499   1.265
 3843SOL     OW11584   0.121   1.708   1.222
 3843SOL    HW111585   0.092   1.676   1.307
 3843SOL    HW211586   0.204   1.751   1.240
 3844SOL     OW11587   1.910   3.328   2.331
 3844SOL    HW111588   1.996   3.354   2.363
 3844SOL    HW211589   1.925   3.300   2.240
 3845SOL     OW11590   2.365   0.640   2.308
 3845SOL    HW111591   2.435   0.600   2.359
 3845SOL    HW211592   2.284   0.612   2.351
 3846SOL     OW11593   1.171   2.179   3.054
 3846SOL    HW111594   1.156   2.273   3.060
 3846SOL    HW211595   1.108   2.141   3.116
 3847SOL     OW11596   0.458   2.756   4.671
 3847SOL    HW111597   0.425   2.747   4.582
 3847SOL    HW211598   0.424   2.840   4.701
 3848SOL     OW11599   2.641   3.713   2.297
 3848SOL    HW111600   2.571   3.777   2.308
 3848SOL    HW211601   2.690   3.716   2.379
 3849SOL     OW11602   0.578   2.206   1.679
 3849SOL    HW111603   0.657   2.231   1.631
 3849SOL    HW211604   0.571   2.270   1.749
 3850SOL     OW11605   4.197   2.710   0.788
 3850SOL    HW111606   4.170   2.691   0.698
 3850SOL    HW211607   4.245   2.632   0.816
 3851SOL     OW11608   3.746   0.692   2.893
 3851SOL    HW111609   3.677   0.748   2.859
 3851SOL    HW211610   3.791   0.659   2.815
 3852SOL     OW11611   1.699   2.351   2.822
 3852SOL    HW111612   1.655   2.363   2.737
 3852SOL    HW211613   1.740   2.265   2.816
 3853SOL     OW11614   1.931   2.349   4.514
 3853SOL    HW111615   1.871   2.305   4.574
 3853SOL    HW211616   2.005   2.374   4.569
 3854SOL     OW11617   3.777   3.062   0.915
 3854SOL    HW111618   3.706   3.112   0.875
 3854SOL    HW211619   3.828   3.030   0.840
 3855SOL     OW11620   0.473   0.285   4.196
 3855SOL    HW111621   0.416   0.246   4.262
 3855SOL    HW211622   0.417   0.293   4.118
 3856SOL     OW11623   0.480   2.128   3.704
 3856SOL    HW111624   0.527   2.059   3.656
 3856SOL    HW211625   0.479   2.098   3.795
 3857SOL     OW11626   4.667   2.488   4.097
 3857SOL    HW111627   4.601   2.498   4.028
 3857SOL    HW211628   4.646   2.555   4.161
 3858SOL     OW11629   2.559   4.704   0.235
 3858SOL    HW111630   2.537   4.711   0.142
 3858SOL    HW211631   2.487   4.746   0.281
 3859SOL     OW11632   2.031   1.969   0.455
 3859SOL    HW111633   1.960   2.003   0.401
 3859SOL    HW211634   2.029   1.874   0.440
 3860SOL     OW11635   4.292   3.261   4.371
 3860SOL    HW111636   4.208   3.226   4.400
 3860SOL    HW211637   4.286   3.355   4.389
 3861SOL     OW11638   3.355   3.956   2.693
 3861SOL    HW111639   3.439   3.928   2.656
 3861SOL    HW211640   3.365   3.941   2.787
 3862SOL     OW11641   2.565   4.749   2.985
 3862SOL    HW111642   2.502   4.682   2.957
 3862SOL    HW211643   2.510   4.819   3.022
 3863SOL     OW11644   2.089   1.796   2.133
 3863SOL    HW111645   2.067   1.889   2.120
 3863SOL    HW211646   2.177   1.797   2.170
 3864SOL     OW11647   4.385   4.236   4.929
 3864SOL    HW111648   4.299   4.195   4.933
 3864SOL    HW211649   4.398   4.256   4.837
 3865SOL     OW11650   0.850   1.143   0.454
 3865SOL    HW111651   0.770   1.189   0.478
 3865SOL    HW211652   0.845   1.133   0.359
 3866SOL     OW11653   1.658   4.548   4.109
 3866SOL    HW111654   1.633   4.612   4.042
 3866SOL    HW211655   1.751   4.564   4.123
 3867SOL     OW11656   1.439   3.181   2.709
 3867SOL    HW111657   1.402   3.097   2.736
 3867SOL    HW211658   1.389   3.205   2.631
 3868SOL     OW11659   2.607   3.424   2.590
 3868SOL    HW111660   2.648   3.479   2.657
 3868SOL    HW211661   2.513   3.433   2.606
 3869SOL     OW11662   4.352   1.285   4.161
 3869SOL    HW111663   4.326   1.209   4.108
 3869SOL    HW211664   4.271   1.313   4.203
 3870SOL     OW11665   0.463   1.566   1.901
 3870SOL    HW111666   0.506   1.594   1.982
 3870SOL    HW211667   0.535   1.537   1.845
 3871SOL     OW11668   2.254   0.931   4.958
 3871SOL    HW111669   2.296   0.845   4.953
 3871SOL    HW211670   2.234   0.942   0.084
 3872SOL     OW11671   0.968   1.039   4.162
 3872SOL    HW111672   0.922   0.969   4.116
 3872SOL    HW211673   0.910   1.115   4.154
 3873SOL     OW11674   0.707   4.335   1.699
 3873SOL    HW111675   0.647   4.385   1.644
 3873SOL    HW211676   0.794   4.371   1.680
 3874SOL     OW11677   4.691   3.105   2.340
 3874SOL    HW111678   4.649   3.068   2.418
 3874SOL    HW211679   4.657   3.054   2.267
 3875SOL     OW11680   1.451   4.790   4.530
 3875SOL    HW111681   1.365   4.773   4.568
 3875SOL    HW211682   1.435   4.856   4.462
 3876SOL     OW11683   2.494   1.864   4.822
 3876SOL    HW111684   2.435   1.905   4.886
 3876SOL    HW211685   2.442   1.856   4.742
 3877SOL     OW11686   3.440   2.988   3.268
 3877SOL    HW111687   3.349   2.978   3.296
 3877SOL    HW211688   3.491   2.970   3.347
 3878SOL     OW11689   2.183   1.364   1.229
 3878SOL    HW111690   2.179   1.442   1.173
 3878SOL    HW211691   2.265   1.321   1.203
 3879SOL     OW11692   2.499   0.048   4.843
 3879SOL    HW111693   2.537   0.103   4.912
 3879SOL    HW211694   2.559   4.940   4.837
 3880SOL     OW11695   1.537   0.334   3.903
 3880SOL    HW111696   1.507   0.318   3.814
 3880SOL    HW211697   1.596   0.261   3.922
 3881SOL     OW11698   1.239   0.333   0.103
 3881SOL    HW111699   1.188   0.296   0.175
 3881SOL    HW211700   1.319   0.364   0.144
 3882SOL     OW11701   1.327   1.250   2.451
 3882SOL    HW111702   1.292   1.231   2.364
 3882SOL    HW211703   1.311   1.343   2.464
 3883SOL     OW11704   3.108   3.105   0.303
 3883SOL    HW111705   3.171   3.100   0.232
 3883SOL    HW211706   3.024   3.119   0.259
 3884SOL     OW11707   0.723   2.421   0.262
 3884SOL    HW111708   0.743   2.376   0.180
 3884SOL    HW211709   0.809   2.447   0.296
 3885SOL     OW11710   3.527   4.550   3.173
 3885SOL    HW111711   3.533   4.498   3.093
 3885SOL    HW211712   3.607   4.603   3.172
 3886SOL     OW11713   2.068   3.906   4.380
 3886SOL    HW111714   2.075   4.001   4.385
 3886SOL    HW211715   2.153   3.874   4.409
 3887SOL     OW11716   2.506   3.434   3.698
 3887SOL    HW111717   2.479   3.525   3.711
 3887SOL    HW211718   2.597   3.440   3.670
 3888SOL     OW11719   0.349   1.813   1.307
 3888SOL    HW111720   0.410   1.791   1.237
 3888SOL    HW211721   0.404   1.845   1.378
 3889SOL     OW11722   1.881   0.674   4.866
 3889SOL    HW111723   1.906   0.733   4.937
 3889SOL    HW211724   1.824   0.609   4.907
 3890SOL     OW11725   0.610   3.772   4.196
 3890SOL    HW111726   0.657   3.847   4.234
 3890SOL    HW211727   0.527   3.809   4.165
 3891SOL     OW11728   4.962   3.567   1.262
 3891SOL    HW111729   0.037   3.530   1.340
 3891SOL    HW211730   0.040   3.525   1.189
 3892SOL     OW11731   1.929   2.510   4.843
 3892SOL    HW111732   1.889   2.434   4.799
 3892SOL    HW211733   2.019   2.483   4.861
 3893SOL     OW11734   2.592   4.701   1.028
 3893SOL    HW111735   2.506   4.740   1.044
 3893SOL    HW211736   2.645   4.772   0.993
 3894SOL     OW11737   2.295   2.120   0.419
 3894SOL    HW111738   2.253   2.055   0.476
 3894SOL    HW211739   2.359   2.070   0.369
 3895SOL     OW11740   2.029   3.382   3.391
 3895SOL    HW111741   2.097   3.414   3.332
 3895SOL    HW211742   2.070   3.382   3.478
 3896SOL     OW11743   0.346   4.184   3.506
 3896SOL    HW111744   0.307   4.232   3.433
 3896SOL    HW211745   0.280   4.121   3.531
 3897SOL     OW11746   3.245   1.648   3.172
 3897SOL    HW111747   3.329   1.616   3.204
 3897SOL    HW211748   3.185   1.574   3.184
 3898SOL     OW11749   4.228   3.568   2.735
 3898SOL    HW111750   4.279   3.540   2.659
 3898SOL    HW211751   4.273   3.529   2.810
 3899SOL     OW11752   4.863   3.924   3.649
 3899SOL    HW111753   4.895   3.884   3.730
 3899SOL    HW211754   4.938   3.921   3.589
 3900SOL     OW11755   1.494   0.692   0.327
 3900SOL    HW111756   1.538   0.617   0.288
 3900SOL    HW211757   1.510   0.763   0.265
 3901SOL     OW11758   0.291   4.051   0.366
 3901SOL    HW111759   0.337   4.048   0.283
 3901SOL    HW211760   0.359   4.069   0.431
 3902SOL     OW11761   2.828   1.959   3.768
 3902SOL    HW111762   2.826   1.975   3.862
 3902SOL    HW211763   2.902   2.012   3.736
 3903SOL     OW11764   0.614   4.249   4.147
 3903SOL    HW111765   0.674   4.321   4.129
 3903SOL    HW211766   0.532   4.275   4.106
 3904SOL     OW11767   0.613   4.216   3.341
 3904SOL    HW111768   0.531   4.232   3.389
 3904SOL    HW211769   0.605   4.127   3.309
 3905SOL     OW11770   2.764   1.854   4.932
 3905SOL    HW111771   2.698   1.867   4.864
 3905SOL    HW211772   2.831   1.800   4.891
 3906SOL     OW11773   3.890   4.765   4.907
 3906SOL    HW111774   3.835   4.704   4.858
 3906SOL    HW211775   3.979   4.746   4.878
 3907SOL     OW11776   0.825   0.833   0.271
 3907SOL    HW111777   0.844   0.915   0.226
 3907SOL    HW211778   0.892   0.827   0.339
 3908SOL     OW11779   3.641   0.443   2.654
 3908SOL    HW111780   3.713   0.506   2.656
 3908SOL    HW211781   3.667   0.379   2.587
 3909SOL     OW11782   3.726   0.938   2.584
 3909SOL    HW111783   3.686   0.852   2.599
 3909SOL    HW211784   3.694   0.965   2.498
 3910SOL     OW11785   3.924   4.792   3.027
 3910SOL    HW111786   3.908   4.700   3.003
 3910SOL    HW211787   4.003   4.790   3.081
 3911SOL     OW11788   0.431   4.939   1.817
 3911SOL    HW111789   0.401   4.889   1.893
 3911SOL    HW211790   0.484   4.876   1.767
 3912SOL     OW11791   1.694   1.216   0.233
 3912SOL    HW111792   1.704   1.214   0.138
 3912SOL    HW211793   1.690   1.309   0.255
 3913SOL     OW11794   4.303   2.787   1.547
 3913SOL    HW111795   4.244   2.860   1.529
 3913SOL    HW211796   4.290   2.726   1.474
 3914SOL     OW11797   4.739   0.988   0.794
 3914SOL    HW111798   4.779   0.901   0.798
 3914SOL    HW211799   4.726   1.012   0.885
 3915SOL     OW11800   0.446   3.044   0.297
 3915SOL    HW111801   0.506   2.978   0.263
 3915SOL    HW211802   0.421   3.013   0.383
 3916SOL     OW11803   3.305   4.810   0.816
 3916SOL    HW111804   3.332   4.861   0.740
 3916SOL    HW211805   3.388   4.788   0.860
 3917SOL     OW11806   3.278   3.223   3.553
 3917SOL    HW111807   3.345   3.261   3.609
 3917SOL    HW211808   3.220   3.296   3.532
 3918SOL     OW11809   4.645   4.028   4.334
 3918SOL    HW111810   4.684   3.940   4.335
 3918SOL    HW211811   4.718   4.087   4.350
 3919SOL     OW11812   4.353   3.484   1.070
 3919SOL    HW111813   4.423   3.511   1.129
 3919SOL    HW211814   4.320   3.402   1.108
 3920SOL     OW11815   1.610   3.991   4.632
 3920SOL    HW111816   1.542   3.983   4.565
 3920SOL    HW211817   1.577   3.939   4.705
 3921SOL     OW11818   0.291   4.368   2.787
 3921SOL    HW111819   0.285   4.380   2.882
 3921SOL    HW211820   0.248   4.284   2.770
 3922SOL     OW11821   0.580   1.273   0.279
 3922SOL    HW111822   0.551   1.275   0.370
 3922SOL    HW211823   0.629   1.355   0.268
 3923SOL     OW11824   0.878   1.477   0.883
 3923SOL    HW111825   0.871   1.571   0.865
 3923SOL    HW211826   0.822   1.462   0.959
 3924SOL     OW11827   3.289   3.583   3.385
 3924SOL    HW111828   3.291   3.619   3.474
 3924SOL    HW211829   3.224   3.513   3.388
 3925SOL     OW11830   1.566   1.245   2.546
 3925SOL    HW111831   1.619   1.261   2.468
 3925SOL    HW211832   1.477   1.231   2.514
 3926SOL     OW11833   1.518   4.132   0.831
 3926SOL    HW111834   1.492   4.118   0.740
 3926SOL    HW211835   1.604   4.174   0.824
 3927SOL     OW11836   1.444   1.687   2.709
 3927SOL    HW111837   1.386   1.636   2.765
 3927SOL    HW211838   1.526   1.638   2.709
 3928SOL     OW11839   3.605   2.935   2.743
 3928SOL    HW111840   3.533   2.991   2.716
 3928SOL    HW211841   3.568   2.847   2.746
 3929SOL     OW11842   3.593   4.902   2.056
 3929SOL    HW111843   3.684   4.890   2.085
 3929SOL    HW211844   3.541   4.879   2.133
 3930SOL     OW11845   2.544   0.559   2.516
 3930SOL    HW111846   2.585   0.475   2.497
 3930SOL    HW211847   2.595   0.594   2.589
 3931SOL     OW11848   4.356   3.849   4.192
 3931SOL    HW111849   4.420   3.906   4.150
 3931SOL    HW211850   4.337   3.782   4.126
 3932SOL     OW11851   3.507   3.275   4.014
 3932SOL    HW111852   3.584   3.257   4.068
 3932SOL    HW211853   3.515   3.368   3.991
 3933SOL     OW11854   3.571   2.412   4.311
 3933SOL    HW111855   3.548   2.323   4.338
 3933SOL    HW211856   3.545   2.416   4.219
 3934SOL     OW11857   0.423   2.755   3.484
 3934SOL    HW111858   0.458   2.672   3.453
 3934SOL    HW211859   0.475   2.821   3.439
 3935SOL     OW11860   1.404   2.755   3.329
 3935SOL    HW111861   1.491   2.747   3.289
 3935SOL    HW211862   1.419   2.740   3.423
 3936SOL     OW11863   2.682   1.072   4.455
 3936SOL    HW111864   2.595   1.085   4.493
 3936SOL    HW211865   2.741   1.115   4.516
 3937SOL     OW11866   2.431   2.480   1.431
 3937SOL    HW111867   2.348   2.491   1.384
 3937SOL    HW211868   2.431   2.389   1.459
 3938SOL     OW11869   3.721   4.943   0.492
 3938SOL    HW111870   3.631   4.911   0.493
 3938SOL    HW211871   3.774   4.866   0.511
 3939SOL     OW11872   3.784   0.857   4.088
 3939SOL    HW111873   3.819   0.893   4.170
 3939SOL    HW211874   3.774   0.933   4.031
 3940SOL     OW11875   0.689   3.494   4.187
 3940SOL    HW111876   0.672   3.586   4.208
 3940SOL    HW211877   0.610   3.466   4.140
 3941SOL     OW11878   0.133   2.823   1.903
 3941SOL    HW111879   0.089   2.794   1.823
 3941SOL    HW211880   0.198   2.755   1.920
 3942SOL     OW11881   1.295   4.751   2.729
 3942SOL    HW111882   1.333   4.829   2.769
 3942SOL    HW211883   1.336   4.744   2.643
 3943SOL     OW11884   2.459   0.344   3.258
 3943SOL    HW111885   2.397   0.319   3.327
 3943SOL    HW211886   2.456   0.272   3.196
 3944SOL     OW11887   3.228   0.245   2.653
 3944SOL    HW111888   3.295   0.308   2.679
 3944SOL    HW211889   3.270   0.193   2.584
 3945SOL     OW11890   3.170   4.320   3.158
 3945SOL    HW111891   3.171   4.247   3.096
 3945SOL    HW211892   3.110   4.384   3.119
 3946SOL     OW11893   0.491   4.694   1.072
 3946SOL    HW111894   0.546   4.751   1.018
 3946SOL    HW211895   0.522   4.710   1.161
 3947SOL     OW11896   2.179   4.270   1.979
 3947SOL    HW111897   2.094   4.226   1.990
 3947SOL    HW211898   2.166   4.357   2.018
 3948SOL     OW11899   1.836   2.921   4.837
 3948SOL    HW111900   1.881   3.006   4.833
 3948SOL    HW211901   1.773   2.931   4.909
 3949SOL     OW11902   0.396   0.294   4.941
 3949SOL    HW111903   0.402   0.373   0.029
 3949SOL    HW211904   0.363   0.226   0.033
 3950SOL     OW11905   2.878   0.101   1.382
 3950SOL    HW111906   2.855   0.144   1.299
 3950SOL    HW211907   2.924   0.021   1.355
 3951SOL     OW11908   2.377   0.723   4.503
 3951SOL    HW111909   2.373   0.817   4.516
 3951SOL    HW211910   2.470   0.702   4.504
 3952SOL     OW11911   2.409   2.562   3.162
 3952SOL    HW111912   2.489   2.527   3.123
 3952SOL    HW211913   2.415   2.536   3.254
 3953SOL     OW11914   2.045   1.045   1.434
 3953SOL    HW111915   1.974   0.990   1.401
 3953SOL    HW211916   2.120   0.986   1.443
 3954SOL     OW11917   2.542   1.257   1.421
 3954SOL    HW111918   2.600   1.327   1.450
 3954SOL    HW211919   2.458   1.276   1.463
 3955SOL     OW11920   3.310   2.571   2.194
 3955SOL    HW111921   3.274   2.588   2.281
 3955SOL    HW211922   3.372   2.642   2.179
 3956SOL     OW11923   4.015   4.495   2.438
 3956SOL    HW111924   3.970   4.494   2.354
 3956SOL    HW211925   3.963   4.438   2.495
 3957SOL     OW11926   2.422   0.751   1.191
 3957SOL    HW111927   2.423   0.800   1.274
 3957SOL    HW211928   2.512   0.720   1.180
 3958SOL     OW11929   4.709   0.723   3.859
 3958SOL    HW111930   4.743   0.785   3.924
 3958SOL    HW211931   4.626   0.762   3.831
 3959SOL     OW11932   4.124   0.000   0.664
 3959SOL    HW111933   4.061   0.028   0.597
 3959SOL    HW211934   4.157   0.082   0.701
 3960SOL     OW11935   3.104   3.742   3.652
 3960SOL    HW111936   3.153   3.822   3.670
 3960SOL    HW211937   3.039   3.736   3.722
 3961SOL     OW11938   2.053   2.148   0.220
 3961SOL    HW111939   1.964   2.121   0.241
 3961SOL    HW211940   2.101   2.142   0.303
 3962SOL     OW11941   2.808   2.780   3.410
 3962SOL    HW111942   2.880   2.842   3.406
 3962SOL    HW211943   2.812   2.734   3.326
 3963SOL     OW11944   2.576   2.622   4.640
 3963SOL    HW111945   2.662   2.617   4.682
 3963SOL    HW211946   2.544   2.532   4.640
 3964SOL     OW11947   0.960   2.999   2.276
 3964SOL    HW111948   0.977   3.069   2.212
 3964SOL    HW211949   0.910   3.042   2.345
 3965SOL     OW11950   4.451   0.789   2.378
 3965SOL    HW111951   4.506   0.856   2.337
 3965SOL    HW211952   4.375   0.838   2.411
 3966SOL     OW11953   1.053   1.320   3.715
 3966SOL    HW111954   1.006   1.359   3.641
 3966SOL    HW211955   1.137   1.364   3.716
 3967SOL     OW11956   3.565   1.505   0.937
 3967SOL    HW111957   3.556   1.553   0.855
 3967SOL    HW211958   3.499   1.543   0.995
 3968SOL     OW11959   3.158   4.042   3.672
 3968SOL    HW111960   3.117   4.123   3.643
 3968SOL    HW211961   3.193   4.062   3.759
 3969SOL     OW11962   0.084   3.554   4.553
 3969SOL    HW111963   0.052   3.564   4.463
 3969SOL    HW211964   0.051   3.632   4.598
 3970SOL     OW11965   1.065   4.803   1.678
 3970SOL    HW111966   1.066   4.838   1.768
 3970SOL    HW211967   0.976   4.818   1.647
 3971SOL     OW11968   4.675   1.216   1.811
 3971SOL    HW111969   4.677   1.258   1.725
 3971SOL    HW211970   4.602   1.155   1.807
 3972SOL     OW11971   0.326   3.688   4.783
 3972SOL    HW111972   0.392   3.631   4.744
 3972SOL    HW211973   0.302   3.749   4.714
 3973SOL     OW11974   3.776   3.659   1.689
 3973SOL    HW111975   3.802   3.743   1.726
 3973SOL    HW211976   3.815   3.658   1.601
 3974SOL     OW11977   0.233   1.836   0.535
 3974SOL    HW111978   0.138   1.832   0.546
 3974SOL    HW211979   0.246   1.880   0.451
 3975SOL     OW11980   4.230   2.664   2.337
 3975SOL    HW111981   4.271   2.651   2.251
 3975SOL    HW211982   4.159   2.726   2.321
 3976SOL     OW11983   1.821   1.963   4.178
 3976SOL    HW111984   1.819   1.875   4.140
 3976SOL    HW211985   1.849   1.949   4.269
 3977SOL     OW11986   4.966   4.308   3.925
 3977SOL    HW111987   0.065   4.352   3.870
 3977SOL    HW211988   4.882   4.344   3.893
 3978SOL     OW11989   1.518   0.111   0.370
 3978SOL    HW111990   1.509   0.163   0.449
 3978SOL    HW211991   1.572   0.036   0.397
 3979SOL     OW11992   0.388   4.099   1.909
 3979SOL    HW111993   0.384   4.093   1.813
 3979SOL    HW211994   0.314   4.154   1.933
 3980SOL     OW11995   2.674   4.177   2.740
 3980SOL    HW111996   2.636   4.090   2.730
 3980SOL    HW211997   2.658   4.220   2.656
 3981SOL     OW11998   3.749   0.772   4.710
 3981SOL    HW111999   3.676   0.777   4.648
 3981SOL    HW212000   3.737   0.687   4.754
 3982SOL     OW12001   2.546   3.729   1.926
 3982SOL    HW112002   2.468   3.739   1.871
 3982SOL    HW212003   2.556   3.634   1.935
 3983SOL     OW12004   3.108   1.513   1.755
 3983SOL    HW112005   3.185   1.568   1.736
 3983SOL    HW212006   3.088   1.532   1.847
 3984SOL     OW12007   4.739   3.038   4.501
 3984SOL    HW112008   4.756   3.044   4.407
 3984SOL    HW212009   4.662   3.092   4.515
 3985SOL     OW12010   3.506   1.969   1.807
 3985SOL    HW112011   3.445   1.989   1.878
 3985SOL    HW212012   3.584   1.935   1.851
 3986SOL     OW12013   3.307   1.693   1.733
 3986SOL    HW112014   3.383   1.724   1.781
 3986SOL    HW212015   3.340   1.670   1.647
 3987SOL     OW12016   1.193   3.151   2.520
 3987SOL    HW112017   1.159   3.061   2.523
 3987SOL    HW212018   1.125   3.201   2.476
 3988SOL     OW12019   2.858   3.971   1.492
 3988SOL    HW112020   2.870   3.878   1.474
 3988SOL    HW212021   2.944   4.010   1.474
 3989SOL     OW12022   0.877   4.050   3.921
 3989SOL    HW112023   0.846   4.115   3.859
 3989SOL    HW212024   0.798   4.017   3.963
 3990SOL     OW12025   0.953   3.824   4.258
 3990SOL    HW112026   0.915   3.889   4.316
 3990SOL    HW212027   0.995   3.760   4.316
 3991SOL     OW12028   4.461   2.726   2.477
 3991SOL    HW112029   4.508   2.660   2.426
 3991SOL    HW212030   4.376   2.732   2.434
 3992SOL     OW12031   4.038   3.363   2.690
 3992SOL    HW112032   4.089   3.441   2.714
 3992SOL    HW212033   4.052   3.302   2.763
 3993SOL     OW12034   2.760   1.792   3.071
 3993SOL    HW112035   2.723   1.729   3.133
 3993SOL    HW212036   2.853   1.769   3.065
 3994SOL     OW12037   0.980   3.204   3.410
 3994SOL    HW112038   1.073   3.218   3.395
 3994SOL    HW212039   0.970   3.215   3.505
 3995SOL     OW12040   0.964   4.147   4.350
 3995SOL    HW112041   1.020   4.135   4.274
 3995SOL    HW212042   1.022   4.136   4.425
 3996SOL     OW12043   4.256   0.198   2.324
 3996SOL    HW112044   4.199   0.235   2.256
 3996SOL    HW212045   4.210   0.120   2.354
 3997SOL     OW12046   0.353   0.048   0.501
 3997SOL    HW112047   0.270   0.021   0.540
 3997SOL    HW212048   0.380   0.124   0.552
 3998SOL     OW12049   2.337   4.896   0.683
 3998SOL    HW112050   2.315   4.942   0.603
 3998SOL    HW212051   2.253   4.865   0.717
 3999SOL     OW12052   3.627   0.231   0.313
 3999SOL    HW112053   3.605   0.219   0.406
 3999SOL    HW212054   3.712   0.190   0.303
 4000SOL     OW12055   3.300   3.041   4.478
 4000SOL    HW112056   3.336   3.044   4.567
 4000SOL    HW212057   3.209   3.068   4.488
 4001SOL     OW12058   2.107   1.269   2.214
 4001SOL    HW112059   2.038   1.215   2.175
 4001SOL    HW212060   2.188   1.223   2.193
 4002SOL     OW12061   3.054   1.588   0.742
 4002SOL    HW112062   3.114   1.630   0.804
 4002SOL    HW212063   3.112   1.545   0.679
 4003SOL     OW12064   1.155   1.616   1.984
 4003SOL    HW112065   1.201   1.533   1.993
 4003SOL    HW212066   1.189   1.654   1.903
 4004SOL     OW12067   0.910   2.236   4.215
 4004SOL    HW112068   0.943   2.151   4.186
 4004SOL    HW212069   0.983   2.276   4.260
 4005SOL     OW12070   3.928   1.182   3.747
 4005SOL    HW112071   3.941   1.273   3.720
 4005SOL    HW212072   3.980   1.172   3.827
 4006SOL     OW12073   3.477   0.647   4.932
 4006SOL    HW112074   3.451   0.731   0.002
 4006SOL    HW212075   3.497   0.665   4.840
 4007SOL     OW12076   2.294   3.171   1.093
 4007SOL    HW112077   2.323   3.261   1.079
 4007SOL    HW212078   2.375   3.120   1.095
 4008SOL     OW12079   2.770   3.072   2.173
 4008SOL    HW112080   2.787   3.094   2.264
 4008SOL    HW212081   2.685   3.112   2.154
 4009SOL     OW12082   4.195   1.081   0.662
 4009SOL    HW112083   4.238   0.998   0.681
 4009SOL    HW212084   4.165   1.072   0.571
 4010SOL     OW12085   4.417   0.619   2.928
 4010SOL    HW112086   4.453   0.630   3.016
 4010SOL    HW212087   4.489   0.581   2.877
 4011SOL     OW12088   1.126   1.157   0.308
 4011SOL    HW112089   1.077   1.235   0.337
 4011SOL    HW212090   1.061   1.105   0.261
 4012SOL     OW12091   2.657   4.729   2.066
 4012SOL    HW112092   2.720   4.701   1.999
 4012SOL    HW212093   2.573   4.731   2.020
 4013SOL     OW12094   3.644   0.049   4.947
 4013SOL    HW112095   3.675   4.947   0.039
 4013SOL    HW212096   3.675   0.130   0.021
 4014SOL     OW12097   1.669   0.939   3.377
 4014SOL    HW112098   1.578   0.926   3.352
 4014SOL    HW212099   1.700   1.008   3.318
 4015SOL     OW12100   2.319   4.348   4.500
 4015SOL    HW112101   2.382   4.421   4.496
 4015SOL    HW212102   2.333   4.300   4.419
 4016SOL     OW12103   3.173   1.749   4.386
 4016SOL    HW112104   3.138   1.824   4.433
 4016SOL    HW212105   3.144   1.673   4.437
 4017SOL     OW12106   4.622   3.423   3.835
 4017SOL    HW112107   4.646   3.470   3.755
 4017SOL    HW212108   4.648   3.481   3.906
 4018SOL     OW12109   1.937   0.987   3.805
 4018SOL    HW112110   1.961   1.067   3.853
 4018SOL    HW212111   1.861   1.013   3.753
 4019SOL     OW12112   3.976   3.430   4.659
 4019SOL    HW112113   3.961   3.491   4.587
 4019SOL    HW212114   3.929   3.351   4.634
 4020SOL     OW12115   2.265   0.919   1.794
 4020SOL    HW112116   2.296   0.839   1.752
 4020SOL    HW212117   2.344   0.968   1.814
 4021SOL     OW12118   2.501   4.564   2.372
 4021SOL    HW112119   2.559   4.504   2.420
 4021SOL    HW212120   2.433   4.507   2.335
 4022SOL     OW12121   3.005   4.532   0.046
 4022SOL    HW112122   3.059   4.588   4.956
 4022SOL    HW212123   3.068   4.474   0.089
 4023SOL     OW12124   0.278   4.760   0.719
 4023SOL    HW112125   0.370   4.777   0.698
 4023SOL    HW212126   0.280   4.708   0.799
 4024SOL     OW12127   3.162   4.028   1.006
 4024SOL    HW112128   3.233   3.965   1.018
 4024SOL    HW212129   3.092   3.996   1.063
 4025SOL     OW12130   3.044   4.822   1.558
 4025SOL    HW112131   2.984   4.748   1.544
 4025SOL    HW212132   3.042   4.837   1.652
 4026SOL     OW12133   0.627   1.299   0.551
 4026SOL    HW112134   0.554   1.295   0.612
 4026SOL    HW212135   0.660   1.389   0.559
 4027SOL     OW12136   0.404   2.189   4.738
 4027SOL    HW112137   0.357   2.212   4.659
 4027SOL    HW212138   0.346   2.215   4.810
 4028SOL     OW12139   0.425   4.551   2.219
 4028SOL    HW112140   0.458   4.619   2.278
 4028SOL    HW212141   0.490   4.481   2.225
 4029SOL     OW12142   4.077   2.121   3.602
 4029SOL    HW112143   4.074   2.215   3.620
 4029SOL    HW212144   4.107   2.082   3.684
 4030SOL     OW12145   4.123   4.862   4.621
 4030SOL    HW112146   4.198   4.906   4.661
 4030SOL    HW212147   4.052   4.926   4.627
 4031SOL     OW12148   0.943   0.465   3.594
 4031SOL    HW112149   0.934   0.547   3.643
 4031SOL    HW212150   0.975   0.492   3.508
 4032SOL     OW12151   4.546   2.176   2.785
 4032SOL    HW112152   4.513   2.262   2.761
 4032SOL    HW212153   4.579   2.187   2.874
 4033NA      NA12154   2.493   1.897   2.067
   4.96650   4.96650   4.96650
