Protein in water
12154
    1DT5    H5T    1   2.337   2.163   2.173  0.3371  1.0213  2.9394
    1DT5    O5'    2   2.410   2.103   2.188  0.1489  0.0990  0.6502
    1DT5    C5'    3   2.514   2.178   2.126 -0.0020 -0.2276  0.5248
    1DT5   H5'1    4   2.486   2.225   2.031  0.1009 -1.4355 -0.1258
    1DT5   H5'2    5   2.601   2.116   2.106  0.9365  0.8584  1.1375
    1DT5    C4'    6   2.554   2.295   2.223 -1.2068 -0.5822 -0.5023
    1DT5    H4'    7   2.651   2.327   2.185 -1.0303 -0.8157 -0.2492
    1DT5    O4'    8   2.464   2.399   2.206 -0.1550 -0.2413 -0.6919
    1DT5    C1'    9   2.460   2.470   2.326 -0.1165 -0.1238  0.5046
    1DT5    H1'   10   2.534   2.550   2.322 -1.2739  0.9432 -2.1128
    1DT5     N1   11   2.328   2.538   2.332 -0.1177  0.0604 -0.3766
    1DT5     C6   12   2.209   2.461   2.326 -0.4206 -0.9763  0.1426
    1DT5     H6   13   2.205   2.353   2.321 -3.1235 -0.9945  0.8610
    1DT5     C5   14   2.095   2.534   2.334  0.0350 -0.3236  0.2057
    1DT5     C7   15   1.965   2.462   2.335  0.0492 -0.0218  0.0156
    1DT5    H71   16   1.893   2.515   2.273 -0.7555 -0.1488  0.8102
    1DT5    H72   17   1.975   2.357   2.310 -0.0500 -0.3395  1.2371
    1DT5    H73   18   1.926   2.456   2.437  1.9934 -0.2192  0.7860
    1DT5     C4   19   2.096   2.676   2.353 -0.0716 -0.3277  0.2298
    1DT5     O4   20   2.007   2.757   2.358  0.3352 -0.4334 -0.0173
    1DT5     N3   21   2.210   2.740   2.366 -0.3787 -0.3299 -0.0065
    1DT5     H3   22   2.210   2.838   2.342 -0.0869 -0.5806 -1.0985
    1DT5     C2   23   2.330   2.681   2.344 -0.3237 -0.2932 -0.3368
    1DT5     O2   24   2.427   2.752   2.337  0.6418 -0.0233  0.1319
    1DT5    C3'   25   2.565   2.250   2.368 -0.1397 -0.4428  0.5835
    1DT5    H3'   26   2.507   2.160   2.387 -1.9239  0.0285 -2.0567
    1DT5    C2'   27   2.486   2.365   2.431 -0.3386  0.4003 -0.0851
    1DT5   H2'1   28   2.393   2.322   2.469  1.3867 -1.2100  2.6040
    1DT5   H2'2   29   2.542   2.407   2.514 -0.3886  0.7072 -0.2047
    1DT5    O3'   30   2.697   2.239   2.410  0.3560 -0.2075  0.2986
    2DT3      P   31   2.738   2.213   2.562  0.2208  0.3588  0.1302
    2DT3    O1P   32   2.865   2.135   2.557  0.0177  0.0772  0.4013
    2DT3    O2P   33   2.629   2.145   2.628  0.5662  0.2397 -0.7868
    2DT3    O5'   34   2.764   2.352   2.631  0.9054  0.2100  0.3582
    2DT3    C5'   35   2.852   2.446   2.562  0.0579  0.0717  0.0293
    2DT3   H5'1   36   2.818   2.453   2.459 -1.1425  2.1644  0.5271
    2DT3   H5'2   37   2.954   2.408   2.562  0.4287  0.9715 -1.8404
    2DT3    C4'   38   2.852   2.586   2.618 -0.4106  0.4302  0.5545
    2DT3    H4'   39   2.928   2.643   2.565  0.1546  0.0368  0.9254
    2DT3    O4'   40   2.724   2.639   2.587  0.4994  0.6933 -0.0358
    2DT3    C1'   41   2.675   2.703   2.704  0.1273  0.5977 -0.2166
    2DT3    H1'   42   2.705   2.807   2.714  0.3731  0.4367  0.7670
    2DT3     N1   43   2.521   2.689   2.700  0.1924  0.2427 -0.3205
    2DT3     C6   44   2.460   2.566   2.710  0.2913  0.0292 -0.7318
    2DT3     H6   45   2.521   2.479   2.730 -1.4954 -0.8281  1.5376
    2DT3     C5   46   2.326   2.553   2.708  0.4066  0.3520  1.0103
    2DT3     C7   47   2.257   2.417   2.724 -0.8513  0.5658  0.1201
    2DT3    H71   48   2.210   2.380   2.633 -2.0235  1.5836  0.2921
    2DT3    H72   49   2.324   2.343   2.768 -0.5425 -0.2872 -1.6837
    2DT3    H73   50   2.173   2.442   2.789 -1.5007 -0.9538 -0.1054
    2DT3     C4   51   2.237   2.666   2.694 -0.0141 -0.2914 -0.1304
    2DT3     O4   52   2.117   2.662   2.693  0.0460 -0.1183 -0.5161
    2DT3     N3   53   2.306   2.786   2.685 -0.1569 -0.6713 -0.5937
    2DT3     H3   54   2.251   2.870   2.674 -0.9237 -1.1413 -0.3626
    2DT3     C2   55   2.439   2.806   2.691 -0.9808  1.2775  0.2777
    2DT3     O2   56   2.491   2.913   2.673  0.6144 -0.5865  0.0537
    2DT3    C3'   57   2.870   2.592   2.771 -0.1635 -0.5908 -0.6550
    2DT3    H3'   58   2.915   2.497   2.801 -0.7612 -1.4946 -2.4469
    2DT3    C2'   59   2.735   2.633   2.826 -0.1113  0.4166 -0.5076
    2DT3   H2'1   60   2.675   2.546   2.855 -0.4992  0.7855 -0.1723
    2DT3   H2'2   61   2.737   2.704   2.910  0.4192 -0.1637 -0.0207
    2DT3    O3'   62   2.958   2.697   2.809 -0.3981  1.0236  0.0953
    2DT3    H3T   63   2.994   2.677   2.896 -0.4124  1.1620  0.1343
    3SOL     OW   64   3.518   4.542   4.842  0.2589 -0.2105  0.1328
    3SOL    HW1   65   3.444   4.591   4.805 -0.8445 -1.4190  0.6898
    3SOL    HW2   66   3.595   4.585   4.805 -0.7415  0.1053 -1.7087
    4SOL     OW   67   4.913   2.709   4.250  0.0349  0.0555 -0.5294
    4SOL    HW1   68   5.009   2.712   4.254 -0.0211  0.4766  1.5790
    4SOL    HW2   69   4.890   2.621   4.279 -0.2349 -0.0163 -0.9490
    5SOL     OW   70   2.234   1.660   3.497 -0.0765  0.2124  0.0133
    5SOL    HW1   71   2.160   1.712   3.466 -0.9656 -1.5609 -0.9972
    5SOL    HW2   72   2.200   1.613   3.573 -0.9784 -2.7085 -2.0375
    6SOL     OW   73   3.452   1.175   1.568 -0.3621 -0.0871 -0.3269
    6SOL    HW1   74   3.424   1.266   1.564 -1.5898 -0.3805  0.6783
    6SOL    HW2   75   3.371   1.126   1.586  0.4385 -1.2495  0.2405
    7SOL     OW   76   3.809   1.524   0.569 -0.3142  0.2555 -0.4290
    7SOL    HW1   77   3.764   1.497   0.649 -1.4092  0.6694 -0.8799
    7SOL    HW2   78   3.761   1.481   0.499  0.7137 -0.2028 -0.8646
    8SOL     OW   79   0.761   1.020   0.118 -0.0070  0.1379  0.1270
    8SOL    HW1   80   0.717   1.082   0.177 -0.1277 -0.0241  0.2087
    8SOL    HW2   81   0.724   1.039   0.032 -0.8692 -0.5629  0.3270
    9SOL     OW   82   0.487   1.007   1.874  0.4101  0.1410 -0.1176
    9SOL    HW1   83   0.532   1.023   1.957 -0.0586 -0.3090  0.2339
    9SOL    HW2   84   0.553   0.966   1.818  0.8096  0.7076 -0.0632
   10SOL     OW   85   2.296   2.300   0.965 -0.4987 -0.0415 -0.4375
   10SOL    HW1   86   2.311   2.309   0.871 -0.4022 -2.1631 -0.6638
   10SOL    HW2   87   2.323   2.211   0.986  0.3858  0.6698  1.8005
   11SOL     OW   88   3.975   0.109   3.090  0.3220  0.2924 -0.2886
   11SOL    HW1   89   3.928   0.166   3.151  0.6953  1.6634 -1.2205
   11SOL    HW2   90   4.056   0.085   3.135  0.1623  0.5111  0.1118
   12SOL     OW   91   1.226   1.951   0.833  0.5021 -0.1925 -0.5284
   12SOL    HW1   92   1.281   1.947   0.911  1.2974  0.0375 -1.0593
   12SOL    HW2   93   1.143   1.987   0.863  0.8474  0.0214  0.1862
   13SOL     OW   94   0.419   2.052   0.755  0.3640  0.5113  0.4287
   13SOL    HW1   95   0.420   1.959   0.780 -0.4991  0.2235 -0.5365
   13SOL    HW2   96   0.344   2.088   0.803  0.4666  0.6111  0.5106
   14SOL     OW   97   0.301   1.414   0.046 -0.2006  0.3582 -0.6917
   14SOL    HW1   98   0.207   1.396   0.057  0.1233 -0.3537  1.3142
   14SOL    HW2   99   0.344   1.345   0.097  1.4384  0.5591 -1.7447
   15SOL     OW  100   3.738   2.015   3.520  0.5929 -0.0062  0.1119
   15SOL    HW1  101   3.727   1.952   3.592  3.3802 -0.1188  0.5359
   15SOL    HW2  102   3.666   2.077   3.533  1.2981  0.3265  3.4369
   16SOL     OW  103   2.767   1.738   1.461 -0.6100 -0.3787  0.3687
   16SOL    HW1  104   2.844   1.680   1.460 -0.2293  0.0891 -1.4867
   16SOL    HW2  105   2.749   1.753   1.554  1.5870 -0.4557  0.8561
   17SOL     OW  106   0.421   2.455   0.449 -0.1151  0.0456  0.2976
   17SOL    HW1  107   0.508   2.490   0.468  0.2727 -0.7381  0.0379
   17SOL    HW2  108   0.423   2.438   0.355 -1.3857  2.2225 -0.1990
   18SOL     OW  109   1.901   2.237   2.923 -0.0060  0.0002 -0.0019
   18SOL    HW1  110   1.900   2.146   2.954 -1.2723 -0.1894 -0.5491
   18SOL    HW2  111   1.975   2.277   2.968  0.0751 -1.0908  0.8673
   19SOL     OW  112   4.294   0.056   1.492  0.2400 -0.1258  0.1984
   19SOL    HW1  113   4.291   0.145   1.458 -0.7102  0.0798  0.7782
   19SOL    HW2  114   4.299   0.001   1.414  1.7312  0.4440 -0.1417
   20SOL     OW  115   2.903   0.462   3.931 -0.2590 -0.0044 -0.1180
   20SOL    HW1  116   2.997   0.474   3.949 -1.1024  3.4233  3.3775
   20SOL    HW2  117   2.860   0.494   4.010 -4.4688 -0.9312 -1.8038
   21SOL     OW  118   2.717   2.664   0.753 -0.3611  0.2495 -0.1905
   21SOL    HW1  119   2.709   2.589   0.695  1.3217 -0.1250  0.0363
   21SOL    HW2  120   2.639   2.660   0.808  0.0029 -1.6772  0.2252
   22SOL     OW  121   0.700   2.055   3.084 -0.1515 -0.2392  0.1297
   22SOL    HW1  122   0.770   2.023   3.027  0.9932  1.1248  0.7176
   22SOL    HW2  123   0.690   2.147   3.062  1.5317  0.8267  3.1893
   23SOL     OW  124   3.391   3.409   4.083  0.0131 -0.6230  0.0866
   23SOL    HW1  125   3.372   3.316   4.092 -1.1658 -0.3741  0.4619
   23SOL    HW2  126   3.388   3.442   4.173 -0.5843 -0.0597 -0.1304
   24SOL     OW  127   1.464   2.037   3.273 -0.1284 -0.3759 -0.1881
   24SOL    HW1  128   1.534   1.971   3.264 -1.0145 -1.4054  0.3105
   24SOL    HW2  129   1.466   2.061   3.365  1.6541  1.9967 -0.7547
   25SOL     OW  130   1.315   3.948   1.930 -0.4364 -0.5492 -0.4212
   25SOL    HW1  131   1.323   4.015   1.997  2.3657 -0.7965 -0.4063
   25SOL    HW2  132   1.318   3.865   1.977  1.8093 -0.7312 -0.7590
   26SOL     OW  133   4.633   2.828   0.643 -0.0716 -0.5543 -0.1932
   26SOL    HW1  134   4.640   2.733   0.653 -0.8922 -0.8643 -2.2032
   26SOL    HW2  135   4.721   2.856   0.618  0.3453 -0.6567  1.0740
   27SOL     OW  136   1.705   1.875   3.222 -0.1359  0.1721  0.1853
   27SOL    HW1  137   1.680   1.792   3.179  0.5984  0.2321 -0.3676
   27SOL    HW2  138   1.754   1.922   3.155 -1.9126  1.7729 -0.0642
   28SOL     OW  139   3.497   2.877   2.117  0.5111 -0.4174 -0.1221
   28SOL    HW1  140   3.557   2.806   2.095 -1.2489 -2.4557  1.2181
   28SOL    HW2  141   3.476   2.863   2.210 -1.4180  0.6429 -0.3450
   29SOL     OW  142   2.189   0.052   4.037  0.1345 -0.7786 -0.5430
   29SOL    HW1  143   2.280   0.044   4.065  0.3411 -0.9209 -1.2264
   29SOL    HW2  144   2.172  -0.028   3.989 -0.2678 -0.6331 -0.6449
   30SOL     OW  145   2.110   4.953   2.324 -0.1506 -0.2398  0.4251
   30SOL    HW1  146   2.164   5.032   2.329 -1.5904  0.7406  0.7211
   30SOL    HW2  147   2.111   4.917   2.413  0.3958 -0.4992  0.3196
   31SOL     OW  148   2.678   4.922   0.679  0.1269  0.0718 -0.8342
   31SOL    HW1  149   2.747   4.964   0.628  1.5892 -0.1255  0.8917
   31SOL    HW2  150   2.722   4.848   0.721 -1.5884 -1.1506 -1.1080
   32SOL     OW  151   1.880   3.321   4.756 -0.2471 -0.1118 -0.2641
   32SOL    HW1  152   1.875   3.226   4.767  2.2920 -0.3572 -0.7219
   32SOL    HW2  153   1.938   3.351   4.826  2.5341  0.4391 -2.5998
   33SOL     OW  154   0.394   2.344   3.334  0.3390  0.0620 -0.1339
   33SOL    HW1  155   0.410   2.256   3.367 -0.5851 -0.3332 -0.7001
   33SOL    HW2  156   0.470   2.363   3.278  0.1397 -0.7196 -0.6848
   34SOL     OW  157   3.751   4.356   4.447 -1.3380  0.2513 -0.1620
   34SOL    HW1  158   3.670   4.325   4.488 -2.3593  2.3704 -0.4535
   34SOL    HW2  159   3.818   4.344   4.514 -2.3791  0.6888  0.9947
   35SOL     OW  160   3.840   1.558   1.420  0.2803  0.4597  0.1939
   35SOL    HW1  161   3.753   1.522   1.404  0.8625 -0.8536 -0.2147
   35SOL    HW2  162   3.842   1.640   1.370 -0.9486  0.8703  0.7868
   36SOL     OW  163   2.456   1.361   1.703  0.0814 -0.3373  0.2544
   36SOL    HW1  164   2.440   1.454   1.718 -1.2638 -0.7350  1.4154
   36SOL    HW2  165   2.452   1.321   1.790 -0.0831 -1.5947 -0.3069
   37SOL     OW  166   3.008   2.797   0.270  0.1352 -0.1197 -0.1996
   37SOL    HW1  167   3.061   2.860   0.220  0.5100  0.1602  0.5348
   37SOL    HW2  168   3.052   2.791   0.354 -0.4527 -0.6411  0.0748
   38SOL     OW  169   4.598   0.901   0.528 -0.0858  0.5102 -0.1463
   38SOL    HW1  170   4.543   0.967   0.569 -1.7579  0.3308 -1.9657
   38SOL    HW2  171   4.581   0.820   0.577  1.1551  1.1367  1.4012
   39SOL     OW  172   4.912   0.543   1.686 -0.0285  0.0294  0.7123
   39SOL    HW1  173   4.817   0.541   1.681  0.0196 -2.8219 -1.5585
   39SOL    HW2  174   4.934   0.481   1.755  0.1730 -0.1979  0.4476
   40SOL     OW  175   1.970   1.107   3.384  0.2315 -0.3165 -1.0673
   40SOL    HW1  176   1.921   1.034   3.421  1.3184 -1.0571 -1.0365
   40SOL    HW2  177   1.904   1.160   3.339 -0.6631 -0.9881 -0.5711
   41SOL     OW  178   3.427   3.520   0.330  0.2612 -0.2819  0.3949
   41SOL    HW1  179   3.507   3.569   0.312  0.0787  0.0482  0.4654
   41SOL    HW2  180   3.446   3.472   0.410  0.5349 -0.5349  0.1786
   42SOL     OW  181   1.621   3.584   3.004 -0.7103  0.0867 -0.4210
   42SOL    HW1  182   1.700   3.546   2.964 -0.5984  0.5452 -0.6486
   42SOL    HW2  183   1.654   3.640   3.074 -0.8624 -0.0860 -0.2109
   43SOL     OW  184   3.409   2.568   3.450  0.8472 -0.5764 -0.2097
   43SOL    HW1  185   3.326   2.556   3.403  0.1315 -0.4621  0.9857
   43SOL    HW2  186   3.399   2.516   3.529  1.4117  0.4428  0.5548
   44SOL     OW  187   3.837   0.395   4.042  0.2762  0.0238  0.1116
   44SOL    HW1  188   3.923   0.354   4.033  0.0837 -0.2435 -0.5101
   44SOL    HW2  189   3.850   0.464   4.108  0.1074 -2.4388  2.9328
   45SOL     OW  190   4.163   1.124   4.298 -0.5144 -0.1360  0.7137
   45SOL    HW1  191   4.096   1.157   4.358 -0.7216 -1.8189  1.4897
   45SOL    HW2  192   4.211   1.202   4.270 -1.4254  0.8734  1.8335
   46SOL     OW  193   3.272   4.638   0.117 -0.1176  0.2359  0.1125
   46SOL    HW1  194   3.195   4.663   0.168 -1.2139  0.9202 -1.7945
   46SOL    HW2  195   3.301   4.718   0.074  1.6237 -0.0297  0.6754
   47SOL     OW  196   2.381  -0.003   3.157  0.4601  0.0957  0.1886
   47SOL    HW1  197   2.423   0.079   3.133  2.0221 -0.4180  1.0110
   47SOL    HW2  198   2.370  -0.050   3.075  2.8043 -0.3193  0.0545
   48SOL     OW  199   1.861   1.706   1.289 -0.0141 -0.1628 -0.6569
   48SOL    HW1  200   1.881   1.721   1.197  0.4448  0.1095 -0.5162
   48SOL    HW2  201   1.943   1.724   1.335  0.3486 -2.2297 -0.3770
   49SOL     OW  202   2.096   0.313   0.856 -0.1374 -0.1822 -0.2121
   49SOL    HW1  203   2.137   0.385   0.904 -1.2911 -0.1365  0.7550
   49SOL    HW2  204   2.087   0.243   0.920  0.3531 -0.9590 -0.9693
   50SOL     OW  205   1.544   1.636   4.665  0.8555  0.2584  0.4409
   50SOL    HW1  206   1.518   1.621   4.756 -2.1102 -2.4933 -0.6744
   50SOL    HW2  207   1.587   1.555   4.639  0.1883  0.3530 -1.0439
   51SOL     OW  208   1.538   2.060   1.714  0.0457  0.8189 -0.4559
   51SOL    HW1  209   1.609   1.997   1.710 -0.1433  0.6034 -0.4630
   51SOL    HW2  210   1.577   2.139   1.751 -0.1397  0.0804  1.4171
   52SOL     OW  211   4.347   1.794   1.681  0.2028  0.1525 -0.3117
   52SOL    HW1  212   4.314   1.704   1.676  0.9949 -0.2009  0.4491
   52SOL    HW2  213   4.318   1.825   1.767 -0.1986  0.6923 -0.6323
   53SOL     OW  214   0.897   1.660   3.110  0.7951 -0.1973  0.5853
   53SOL    HW1  215   0.819   1.716   3.106  0.5868 -0.3050  2.2657
   53SOL    HW2  216   0.948   1.684   3.033 -0.6048  0.3202 -0.2111
   54SOL     OW  217   2.283   3.864   4.323 -0.2957 -0.3421 -0.9835
   54SOL    HW1  218   2.365   3.833   4.284 -0.3438 -0.4127 -1.0287
   54SOL    HW2  219   2.298   3.957   4.339  0.0225 -0.4884 -0.4047
   55SOL     OW  220   3.722   1.169   4.779 -0.4109  0.6768  1.0451
   55SOL    HW1  221   3.793   1.106   4.765 -1.0351  0.0909  0.4587
   55SOL    HW2  222   3.645   1.128   4.740 -0.6358  2.2330 -0.2384
   56SOL     OW  223   2.071   0.745   3.615  0.4852  0.0088 -0.9727
   56SOL    HW1  224   1.978   0.723   3.622 -0.3239  2.1624 -3.5499
   56SOL    HW2  225   2.080   0.826   3.665  1.3407 -0.8278  0.3201
   57SOL     OW  226   4.156   2.726   3.479  0.0554 -0.5441  0.5667
   57SOL    HW1  227   4.242   2.684   3.486  0.1363 -0.6942 -0.9921
   57SOL    HW2  228   4.175   2.819   3.474  0.2354 -0.6280 -0.7968
   58SOL     OW  229   0.378   0.439   3.638  0.0882 -0.4494  0.1584
   58SOL    HW1  230   0.370   0.369   3.574 -1.9574 -1.3081  1.2795
   58SOL    HW2  231   0.358   0.398   3.722 -1.3166  1.4933  0.8378
   59SOL     OW  232   3.073   1.136   0.686  0.2843 -0.2299  0.0285
   59SOL    HW1  233   3.143   1.090   0.733  0.2669  1.0704  1.3989
   59SOL    HW2  234   3.052   1.211   0.741 -2.0830 -0.4630 -0.4437
   60SOL     OW  235   4.137   2.840   2.697  0.4627  0.3345 -0.1523
   60SOL    HW1  236   4.056   2.861   2.652  0.4139 -0.2050 -0.3247
   60SOL    HW2  237   4.166   2.923   2.735 -0.2351  0.5036  0.0237
   61SOL     OW  238   2.118   3.588   1.750 -0.0852  0.1621 -0.3628
   61SOL    HW1  239   2.086   3.516   1.695  1.0617  0.0590 -0.9301
   61SOL    HW2  240   2.042   3.643   1.763 -0.7445 -0.6163 -0.7892
   62SOL     OW  241   1.693   1.675   3.771  0.6259 -0.0160 -0.1735
   62SOL    HW1  242   1.700   1.668   3.676  2.4595  0.3172 -0.1010
   62SOL    HW2  243   1.706   1.768   3.789 -1.3991  0.2110  0.3220
   63SOL     OW  244   4.656   4.102   0.425  0.2762  0.0298 -0.5841
   63SOL    HW1  245   4.680   4.069   0.338  0.0670 -1.8182  0.0070
   63SOL    HW2  246   4.562   4.085   0.432  0.0136  1.4511 -0.5094
   64SOL     OW  247   4.603   4.395   0.449 -0.3438  0.5801  0.4612
   64SOL    HW1  248   4.635   4.321   0.397  0.3502  0.0035  1.6710
   64SOL    HW2  249   4.540   4.356   0.510  0.3186  0.8995  1.3723
   65SOL     OW  250   3.317   0.972   3.255 -0.0362 -0.2087  0.1534
   65SOL    HW1  251   3.305   0.878   3.251  0.4589 -0.2680 -0.0284
   65SOL    HW2  252   3.267   1.000   3.332  1.6783 -0.9286  1.6001
   66SOL     OW  253   4.435   2.875   2.961 -0.0552  0.9383 -0.2490
   66SOL    HW1  254   4.497   2.942   2.932 -0.3829  0.6232 -1.7412
   66SOL    HW2  255   4.473   2.842   3.043  2.3350  0.0350 -1.6239
   67SOL     OW  256   1.336   2.431   1.198 -0.1292 -0.3518 -0.1666
   67SOL    HW1  257   1.309   2.475   1.117  0.2755 -0.4802 -0.3790
   67SOL    HW2  258   1.352   2.341   1.171  1.2141 -0.1261 -0.2285
   68SOL     OW  259   2.305   1.186   4.926  0.8868 -0.0392  0.1713
   68SOL    HW1  260   2.353   1.251   4.875 -0.7317  0.9428 -0.1556
   68SOL    HW2  261   2.223   1.174   4.878 -0.6513  0.8303  2.4411
   69SOL     OW  262   0.562   2.371   4.476  0.0161  0.1473  0.2135
   69SOL    HW1  263   0.472   2.337   4.478 -0.3179  0.8878 -1.1278
   69SOL    HW2  264   0.595   2.346   4.389  1.5285 -1.0858  1.0754
   70SOL     OW  265   4.755   0.917   1.625 -0.6098  0.1345  0.5082
   70SOL    HW1  266   4.699   0.961   1.561  1.0239  0.1710 -0.9643
   70SOL    HW2  267   4.805   0.854   1.573  0.3436 -0.2609  1.8574
   71SOL     OW  268   3.630   4.870   2.074 -0.5390 -0.2272 -0.3507
   71SOL    HW1  269   3.680   4.794   2.106 -0.1983 -0.4523 -1.3724
   71SOL    HW2  270   3.695   4.940   2.067 -0.4472 -0.3885 -1.2347
   72SOL     OW  271   2.083   3.683   4.702  0.3326  0.7111  0.3395
   72SOL    HW1  272   1.997   3.687   4.662  0.6492 -0.6866 -0.5605
   72SOL    HW2  273   2.133   3.622   4.647  0.4005 -2.3915  3.4383
   73SOL     OW  274   4.870   3.701   2.440 -0.2052  0.0269 -0.0228
   73SOL    HW1  275   4.850   3.795   2.439 -0.9269 -0.1263 -0.2853
   73SOL    HW2  276   4.901   3.682   2.352 -0.5940 -0.0911 -0.1359
   74SOL     OW  277   3.388   2.523   4.499 -0.0361 -0.1248  0.1759
   74SOL    HW1  278   3.331   2.597   4.478  0.7215  0.2184 -0.7206
   74SOL    HW2  279   3.447   2.557   4.566 -0.0627 -0.0977  0.1862
   75SOL     OW  280   1.679   1.730   2.551  0.2081  0.4852  0.0747
   75SOL    HW1  281   1.731   1.692   2.621 -0.0514  2.8529  1.6438
   75SOL    HW2  282   1.723   1.812   2.530 -1.4265  1.2869 -0.3780
   76SOL     OW  283   4.193   3.894   2.574  0.2186  0.0882  0.3774
   76SOL    HW1  284   4.234   3.950   2.640  1.6339 -1.9193  1.3116
   76SOL    HW2  285   4.187   3.808   2.616 -1.7731 -0.5297 -1.0212
   77SOL     OW  286   3.703   3.370   1.721  0.3830 -0.5270 -0.3221
   77SOL    HW1  287   3.624   3.331   1.758  0.1182 -0.2901 -0.6316
   77SOL    HW2  288   3.739   3.423   1.791  0.7005 -1.2555  0.0789
   78SOL     OW  289   3.154   4.872   1.279  0.7068  0.3320  0.1051
   78SOL    HW1  290   3.110   4.798   1.238 -0.2377  0.7422  0.3459
   78SOL    HW2  291   3.084   4.936   1.293  1.2463  0.7007  1.1914
   79SOL     OW  292   0.813   3.349   2.988 -0.2391  0.1208 -0.2622
   79SOL    HW1  293   0.751   3.285   2.953  1.2195 -1.1261 -0.6653
   79SOL    HW2  294   0.764   3.393   3.058 -1.2292 -1.6360  0.2392
   80SOL     OW  295   3.499   4.173   1.838  0.4205  0.3752 -0.8752
   80SOL    HW1  296   3.421   4.211   1.798 -0.6656  1.3214  1.8683
   80SOL    HW2  297   3.467   4.098   1.888  1.3328  0.4648 -0.1206
   81SOL     OW  298   1.919   1.815   4.057  0.3281 -0.4395  0.5564
   81SOL    HW1  299   1.915   1.719   4.053  0.0364 -0.4110  0.0199
   81SOL    HW2  300   1.881   1.844   3.974  0.3788  0.1441  0.7307
   82SOL     OW  301   1.641   1.555   4.301  0.1387 -0.0375  0.0098
   82SOL    HW1  302   1.651   1.610   4.224 -0.4316 -1.1545 -0.8822
   82SOL    HW2  303   1.547   1.538   4.308  0.4500 -2.8547 -1.2102
   83SOL     OW  304   3.813   4.126   1.971 -0.2035 -0.1656 -0.3935
   83SOL    HW1  305   3.773   4.108   2.056  0.7970  2.3993  0.7351
   83SOL    HW2  306   3.907   4.131   1.990 -0.0612  1.4888 -1.3943
   84SOL     OW  307   2.096   1.193   3.980 -0.5796 -0.3423 -0.2029
   84SOL    HW1  308   2.138   1.109   3.999 -0.1255 -0.2056 -0.5955
   84SOL    HW2  309   2.107   1.244   4.060  0.0144 -0.3039 -0.3066
   85SOL     OW  310   2.379   3.677   0.910  0.5841 -0.0636 -0.3653
   85SOL    HW1  311   2.350   3.587   0.921  0.2809  0.0804  0.0259
   85SOL    HW2  312   2.446   3.690   0.977 -1.0899  0.7348  1.2436
   86SOL     OW  313   4.978   1.089   2.933 -0.4286  0.3295 -0.2118
   86SOL    HW1  314   4.983   1.122   3.023  0.1134 -1.3084  0.3925
   86SOL    HW2  315   4.886   1.070   2.919 -0.5665  0.9174 -0.1480
   87SOL     OW  316   4.032   2.012   2.683  0.1413  0.3126  0.2844
   87SOL    HW1  317   4.100   2.075   2.706 -0.4609  1.3345 -0.6534
   87SOL    HW2  318   4.007   1.973   2.766 -0.8075  2.6922  1.1787
   88SOL     OW  319   3.648   1.792   2.982  0.3497 -0.0409  0.5776
   88SOL    HW1  320   3.656   1.698   2.966  1.3550 -0.2234  1.9553
   88SOL    HW2  321   3.587   1.823   2.915  0.1352 -1.6360 -0.0035
   89SOL     OW  322   2.764   2.059   0.095 -0.0546 -0.2287  0.1988
   89SOL    HW1  323   2.826   2.002   0.141 -0.2146  0.3818  1.2010
   89SOL    HW2  324   2.717   2.105   0.165  2.1162  3.3696 -0.4630
   90SOL     OW  325   2.179   1.354   2.639 -0.3645 -0.2261  0.8116
   90SOL    HW1  326   2.273   1.362   2.660  0.1204  0.2204 -1.3588
   90SOL    HW2  327   2.177   1.314   2.552 -2.1873  0.4938  0.4811
   91SOL     OW  328   1.901   2.408   0.435 -0.1324  0.1494  0.7752
   91SOL    HW1  329   1.914   2.463   0.513  0.5511  0.0062  0.7726
   91SOL    HW2  330   1.885   2.321   0.470  2.2308 -0.3532  0.7750
   92SOL     OW  331   0.056   0.973   0.225 -0.5909 -0.3937 -0.4294
   92SOL    HW1  332   0.099   0.916   0.289 -0.2363 -1.6220 -1.7161
   92SOL    HW2  333   0.006   1.035   0.278  2.2265  0.6946  1.1010
   93SOL     OW  334   1.707   0.420   0.194  0.1349 -0.0122  0.1018
   93SOL    HW1  335   1.657   0.501   0.204 -0.6836 -0.4424 -0.4462
   93SOL    HW2  336   1.704   0.400   0.101 -0.8702 -1.4202  0.4009
   94SOL     OW  337   1.854   0.873   2.678 -0.3183  0.0523 -0.2835
   94SOL    HW1  338   1.905   0.848   2.601 -1.1592 -0.3748 -0.7256
   94SOL    HW2  339   1.918   0.909   2.739  0.4564 -0.1808 -0.9369
   95SOL     OW  340   1.052   3.851   2.823 -0.2708 -0.1301 -0.2937
   95SOL    HW1  341   1.112   3.909   2.869  0.1745 -0.1522 -0.8447
   95SOL    HW2  342   1.045   3.889   2.735 -0.4716 -0.5564 -0.4613
   96SOL     OW  343   3.106   1.940   1.724 -0.4294 -0.4207 -0.2121
   96SOL    HW1  344   3.116   1.852   1.759  4.2246  0.3673  1.2768
   96SOL    HW2  345   3.081   1.993   1.799 -0.1676 -0.0934 -0.3492
   97SOL     OW  346   0.721   2.578   3.525  0.2802  0.8115 -0.6537
   97SOL    HW1  347   0.692   2.663   3.492 -0.3596  0.9852  0.3109
   97SOL    HW2  348   0.751   2.531   3.448  0.8567  1.9978 -1.1736
   98SOL     OW  349   3.511   1.186   2.427  0.0891  0.0736 -0.5820
   98SOL    HW1  350   3.416   1.195   2.436  0.1295  0.1254 -0.1931
   98SOL    HW2  351   3.532   1.105   2.473  0.4920  1.1133  1.1553
   99SOL     OW  352   0.474   3.019   0.701  0.3286  0.0569  0.2808
   99SOL    HW1  353   0.499   3.010   0.793 -0.3375 -0.8407  0.3997
   99SOL    HW2  354   0.379   3.003   0.701  0.5501 -1.4798 -0.7333
  100SOL     OW  355   2.152   4.849   1.866 -0.2899 -0.3122 -0.5357
  100SOL    HW1  356   2.116   4.937   1.865  1.7504  0.6144  1.0389
  100SOL    HW2  357   2.169   4.829   1.773 -1.7398  0.4746 -1.0016
  101SOL     OW  358   4.142   1.506   2.297  0.2737 -0.0886 -0.4437
  101SOL    HW1  359   4.162   1.416   2.270  1.4221  0.7681 -2.7185
  101SOL    HW2  360   4.178   1.513   2.385  1.0928 -1.5524 -0.6246
  102SOL     OW  361   0.452   4.326   2.570 -0.1998  0.3549  0.2546
  102SOL    HW1  362   0.532   4.312   2.519  0.4492 -1.1966  1.6062
  102SOL    HW2  363   0.392   4.370   2.510  0.7047 -0.9222 -1.6920
  103SOL     OW  364   0.078   3.253   2.340  0.0603  0.2976  0.0553
  103SOL    HW1  365   0.082   3.170   2.387 -0.5904  0.3922  0.2762
  103SOL    HW2  366   0.169   3.271   2.316  0.2640 -0.2469  0.4094
  104SOL     OW  367   0.994   3.849   2.002 -0.0497 -0.2374 -0.1640
  104SOL    HW1  368   0.919   3.868   2.059  0.2082 -0.3778  0.2253
  104SOL    HW2  369   1.033   3.935   1.985 -0.3975 -0.1431 -0.5129
  105SOL     OW  370   1.446   2.859   4.230  0.2434  0.6981 -0.7786
  105SOL    HW1  371   1.357   2.865   4.196 -0.2814  0.3434  0.4728
  105SOL    HW2  372   1.487   2.942   4.204 -0.3659  0.7595 -1.5770
  106SOL     OW  373   0.386   0.729   2.972  0.1787  0.0256 -0.6410
  106SOL    HW1  374   0.413   0.641   2.947 -1.2298 -1.2013  1.8192
  106SOL    HW2  375   0.346   0.765   2.892  0.3786 -1.7203 -1.5764
  107SOL     OW  376   2.986   3.787   3.503 -0.1444  0.4049 -0.1682
  107SOL    HW1  377   2.908   3.739   3.474  0.8677 -1.8806  0.6625
  107SOL    HW2  378   3.048   3.776   3.431  0.6250 -0.9100  0.6721
  108SOL     OW  379   0.680   1.338   1.692  0.1552  0.0024  0.2561
  108SOL    HW1  380   0.596   1.314   1.731  0.6426 -0.4225  1.0760
  108SOL    HW2  381   0.685   1.285   1.612 -0.2805 -0.0999  0.2923
  109SOL     OW  382   0.977   3.135   1.562  0.5386 -0.1433 -0.0468
  109SOL    HW1  383   1.009   3.199   1.626  1.1914  0.8264 -1.2767
  109SOL    HW2  384   0.994   3.177   1.477  0.7338 -1.8530 -0.8846
  110SOL     OW  385   0.519   4.238   1.108  0.6550 -0.0050  0.3796
  110SOL    HW1  386   0.513   4.144   1.124 -0.7178  0.1126  0.6866
  110SOL    HW2  387   0.602   4.250   1.062  1.5085 -1.1894  1.5564
  111SOL     OW  388   1.796   2.713   0.979 -0.2504 -0.5278  0.4804
  111SOL    HW1  389   1.731   2.648   0.956  2.6783 -3.2342 -0.9428
  111SOL    HW2  390   1.813   2.699   1.072 -0.1077 -1.3965  0.3284
  112SOL     OW  391   1.226   2.908   4.425  0.2978  0.3053 -0.2345
  112SOL    HW1  392   1.316   2.941   4.431  0.1735  0.7573 -0.8277
  112SOL    HW2  393   1.211   2.866   4.510  0.5085  1.6419  0.4974
  113SOL     OW  394   2.452   0.771   3.394  0.3106  0.2769 -0.0695
  113SOL    HW1  395   2.372   0.722   3.414  0.5196  0.2166  0.6690
  113SOL    HW2  396   2.430   0.823   3.317  0.2871 -1.4680 -1.3000
  114SOL     OW  397   1.670   3.050   2.603  0.0612 -0.5475  0.1949
  114SOL    HW1  398   1.624   3.112   2.547 -1.3572 -1.4456  0.3107
  114SOL    HW2  399   1.758   3.045   2.566 -0.4076 -0.0234 -1.0491
  115SOL     OW  400   2.409   3.468   3.310  0.0220 -0.1383  0.2342
  115SOL    HW1  401   2.495   3.487   3.346  0.1048 -1.5907  0.8784
  115SOL    HW2  402   2.410   3.508   3.223  1.8844 -1.3364 -0.3546
  116SOL     OW  403   4.379   4.635   2.570  0.5311  0.2732  0.0602
  116SOL    HW1  404   4.435   4.658   2.644 -0.4359 -0.4449  1.0556
  116SOL    HW2  405   4.427   4.566   2.525  0.8188  0.2257  0.4331
  117SOL     OW  406   3.604   0.557   0.175 -0.1484 -0.1909 -0.5797
  117SOL    HW1  407   3.537   0.566   0.243  0.2453  0.8121 -0.3132
  117SOL    HW2  408   3.687   0.565   0.222  0.1196  1.5563 -1.2994
  118SOL     OW  409   4.638   0.317   0.324  0.6474  0.5119  0.1990
  118SOL    HW1  410   4.544   0.301   0.316  0.7122 -0.1712  0.6874
  118SOL    HW2  411   4.644   0.404   0.363  0.2489  1.0553 -0.8879
  119SOL     OW  412   4.497   3.609   4.543  0.0660 -0.3467 -0.1107
  119SOL    HW1  413   4.470   3.673   4.477  0.5454 -0.9013 -0.8599
  119SOL    HW2  414   4.420   3.552   4.553  0.6519 -1.5111 -1.7417
  120SOL     OW  415   3.384   2.260   3.399  0.4566  0.4245 -0.2415
  120SOL    HW1  416   3.289   2.251   3.404  0.2838  2.2141  0.3063
  120SOL    HW2  417   3.400   2.302   3.315  0.8117 -0.3718 -0.5761
  121SOL     OW  418   2.770   4.338   0.541  0.3587  0.0358 -0.0430
  121SOL    HW1  419   2.709   4.384   0.599  1.9985  2.5421 -0.1485
  121SOL    HW2  420   2.829   4.291   0.601  0.9157  1.1173  0.2918
  122SOL     OW  421   3.862   3.493   1.314  0.0090  0.6526  0.1711
  122SOL    HW1  422   3.861   3.588   1.303 -1.1997  0.7656  0.9740
  122SOL    HW2  423   3.773   3.472   1.343  0.6873 -0.5379  1.4927
  123SOL     OW  424   3.657   3.947   0.192 -0.4825  0.3087 -0.0461
  123SOL    HW1  425   3.691   3.960   0.281 -1.5820 -0.0536  0.4542
  123SOL    HW2  426   3.604   4.024   0.175 -0.4835  0.2557 -0.2844
  124SOL     OW  427   3.269   0.040   3.788  0.0275  0.3574  0.0151
  124SOL    HW1  428   3.214   0.089   3.849 -0.3961  0.3680 -0.3673
  124SOL    HW2  429   3.213   0.025   3.712  0.6417  0.6147 -0.5019
  125SOL     OW  430   2.124   3.532   2.990 -0.2444  0.1415  0.2510
  125SOL    HW1  431   2.085   3.619   2.988 -0.5675 -0.0035  0.0860
  125SOL    HW2  432   2.068   3.479   2.933  0.4806  0.0481 -0.3970
  126SOL     OW  433   1.734   1.924   4.226  0.3177 -0.1182  0.0598
  126SOL    HW1  434   1.804   1.906   4.163  0.8317 -0.1920  0.6388
  126SOL    HW2  435   1.683   1.843   4.230  0.6737 -0.3340  0.2245
  127SOL     OW  436   1.609   1.501   0.912  0.1655 -0.6688  0.3369
  127SOL    HW1  437   1.586   1.426   0.856  1.2097  0.2335 -1.3863
  127SOL    HW2  438   1.537   1.562   0.900  1.8610  0.9522 -2.8223
  128SOL     OW  439   1.183   4.943   0.462  0.6265 -0.2146 -0.0513
  128SOL    HW1  440   1.273   4.970   0.443  0.0250  2.4131  0.4208
  128SOL    HW2  441   1.192   4.879   0.533  2.0827  1.9753  1.8784
  129SOL     OW  442   2.831   2.883   0.632 -0.4200  0.2018 -0.5955
  129SOL    HW1  443   2.766   2.837   0.686 -0.8859  0.6165 -0.7993
  129SOL    HW2  444   2.911   2.881   0.685 -0.7465  0.1838 -0.0985
  130SOL     OW  445   1.441   2.279   1.971  0.0953 -0.4413 -0.1718
  130SOL    HW1  446   1.354   2.281   2.011  0.3787 -0.3651  0.4525
  130SOL    HW2  447   1.428   2.318   1.884 -0.3563  0.2652  0.2023
  131SOL     OW  448   3.020   1.176   1.430 -0.2500  0.1700  0.1066
  131SOL    HW1  449   3.036   1.163   1.336 -2.6975 -0.0503 -0.3455
  131SOL    HW2  450   2.972   1.258   1.435 -0.0055  0.2605  1.2110
  132SOL     OW  451   0.359   3.706   0.919 -0.1499  0.4342  0.7961
  132SOL    HW1  452   0.291   3.766   0.888  0.2942  1.4697  1.7518
  132SOL    HW2  453   0.320   3.662   0.995 -0.9744 -1.5599 -0.7015
  133SOL     OW  454   4.803   2.945   0.297  0.2454  0.5539  0.2925
  133SOL    HW1  455   4.745   2.922   0.224  1.2435 -1.0789 -0.0284
  133SOL    HW2  456   4.870   3.000   0.257 -1.3772  3.0701  0.7988
  134SOL     OW  457   0.822   3.577   4.571 -0.0971 -0.4709  0.3537
  134SOL    HW1  458   0.880   3.575   4.647 -1.0405  0.3982  1.1334
  134SOL    HW2  459   0.742   3.534   4.600 -0.3376 -0.4708 -0.2785
  135SOL     OW  460   2.374   2.205   3.361  0.0449 -0.0426 -0.1774
  135SOL    HW1  461   2.353   2.192   3.453 -0.1136  1.0335 -0.0445
  135SOL    HW2  462   2.326   2.285   3.337  1.6496  0.8254 -0.6470
  136SOL     OW  463   0.365   1.436   4.256 -0.1747  0.3159  0.6593
  136SOL    HW1  464   0.286   1.386   4.235  0.2016 -0.5826  1.3189
  136SOL    HW2  465   0.386   1.411   4.345  2.1633 -1.2781 -0.2533
  137SOL     OW  466   1.077   0.190   0.581 -0.0549 -0.2307  0.2517
  137SOL    HW1  467   1.127   0.123   0.534  0.6485 -0.5446  1.4057
  137SOL    HW2  468   1.137   0.223   0.648 -0.7417  0.8116  0.3809
  138SOL     OW  469   2.516   3.220   3.685 -0.1957 -0.4429  0.0763
  138SOL    HW1  470   2.454   3.286   3.652  0.4374  0.9914  1.5983
  138SOL    HW2  471   2.495   3.141   3.636 -1.9607  0.5021 -0.7981
  139SOL     OW  472   0.213   2.195   0.899  0.2054  0.0475 -0.3457
  139SOL    HW1  473   0.181   2.131   0.963 -2.2620  1.0766 -0.4277
  139SOL    HW2  474   0.212   2.278   0.946  1.1542  0.3974 -0.9193
  140SOL     OW  475   0.395   3.958   2.037 -0.1271 -0.0906 -0.1892
  140SOL    HW1  476   0.462   4.027   2.043 -1.0814  0.7780  1.0028
  140SOL    HW2  477   0.323   3.999   1.989 -1.0839  0.0925  1.3519
  141SOL     OW  478   2.309   1.206   2.949  0.2752 -0.1772 -0.3934
  141SOL    HW1  479   2.395   1.170   2.971  0.5092  1.3486  1.3929
  141SOL    HW2  480   2.328   1.276   2.886  0.6511  1.6640  1.6738
  142SOL     OW  481   4.333   4.942   4.328 -0.3976 -0.5266  1.3708
  142SOL    HW1  482   4.379   4.861   4.303  0.0600  0.1469 -0.1085
  142SOL    HW2  483   4.243   4.929   4.296  0.0591  0.1260 -0.2963
  143SOL     OW  484   4.489   0.350   3.943  0.4276 -0.1374  0.1834
  143SOL    HW1  485   4.511   0.406   3.869  2.3479  0.9472  1.5071
  143SOL    HW2  486   4.554   0.280   3.941  0.8485  0.2168  1.1691
  144SOL     OW  487   3.636   4.156   0.650  0.3334 -0.7513  0.2360
  144SOL    HW1  488   3.642   4.241   0.606 -0.1183 -0.7286  0.2114
  144SOL    HW2  489   3.721   4.145   0.692  1.1330 -1.2116 -1.4092
  145SOL     OW  490   3.813   3.072   3.932 -0.2734 -0.3290 -0.9654
  145SOL    HW1  491   3.798   3.022   4.012 -0.9167 -0.1706 -0.9835
  145SOL    HW2  492   3.885   3.026   3.888 -1.7730 -2.0791 -1.6742
  146SOL     OW  493   0.142   0.829   0.556 -0.0829  0.6460 -0.5162
  146SOL    HW1  494   0.164   0.903   0.612  1.6452  1.0461 -1.6663
  146SOL    HW2  495   0.225   0.803   0.516 -0.8506 -1.1802 -1.0340
  147SOL     OW  496   4.862   4.234   4.895  0.7789 -0.5224  0.3716
  147SOL    HW1  497   4.907   4.219   4.977 -0.4001  2.0966  1.6081
  147SOL    HW2  498   4.905   4.311   4.857 -1.2377  0.7832  0.5970
  148SOL     OW  499   3.349   2.900   4.296 -0.0098  0.1190  1.0635
  148SOL    HW1  500   3.281   2.839   4.325 -0.0395  0.9146  2.8512
  148SOL    HW2  501   3.343   2.973   4.359  0.7438  1.4454 -0.3404
  149SOL     OW  502   1.861   4.486   4.795  0.1978 -0.2695 -0.2570
  149SOL    HW1  503   1.817   4.420   4.850  0.0781 -0.4961 -0.6186
  149SOL    HW2  504   1.814   4.482   4.711  0.6817 -0.2589 -0.5305
  150SOL     OW  505   2.797   2.655   2.012 -0.1590  0.3792  0.3936
  150SOL    HW1  506   2.877   2.692   1.974  1.8474 -0.2282  3.6395
  150SOL    HW2  507   2.809   2.560   2.005 -1.4388  0.2524 -0.5494
  151SOL     OW  508   3.596   4.267   1.484 -0.0425  0.2231 -0.5428
  151SOL    HW1  509   3.663   4.314   1.433  0.7983 -0.2506  0.1047
  151SOL    HW2  510   3.646   4.213   1.545 -1.0295 -0.0927  0.0001
  152SOL     OW  511   3.206   2.486   0.890 -0.0355  0.1507  0.4737
  152SOL    HW1  512   3.200   2.441   0.806  2.2560  0.3306  0.1556
  152SOL    HW2  513   3.177   2.421   0.954 -0.3004 -0.5111 -0.2942
  153SOL     OW  514   4.534   4.347   4.178  0.4822 -0.7259  0.2855
  153SOL    HW1  515   4.565   4.377   4.263  3.0385 -1.5114 -0.2898
  153SOL    HW2  516   4.520   4.253   4.189 -1.9413 -0.4136  0.5264
  154SOL     OW  517   2.460   1.343   2.724 -0.6673 -0.3928 -0.0908
  154SOL    HW1  518   2.549   1.309   2.735 -0.9954 -1.5424 -0.7466
  154SOL    HW2  519   2.472   1.431   2.688  0.2039 -0.5526 -0.2149
  155SOL     OW  520   4.310   0.462   1.550 -0.1704 -0.5652 -0.1086
  155SOL    HW1  521   4.284   0.434   1.463  2.5356  0.4774 -1.3942
  155SOL    HW2  522   4.368   0.393   1.581  1.8361  0.6974 -0.8141
  156SOL     OW  523   1.156   2.571   3.467 -0.8364 -0.3920 -0.0538
  156SOL    HW1  524   1.176   2.536   3.380 -0.2499 -0.4474  0.0995
  156SOL    HW2  525   1.154   2.494   3.524  1.3127 -0.1422  0.4470
  157SOL     OW  526   0.540   1.500   3.768  0.3292 -0.7677  0.5144
  157SOL    HW1  527   0.453   1.488   3.805 -1.2101  1.4964 -2.0215
  157SOL    HW2  528   0.555   1.594   3.771  1.9319 -0.9410 -0.7525
  158SOL     OW  529   3.201   3.586   2.612  0.1491 -0.8143  0.3693
  158SOL    HW1  530   3.120   3.637   2.614 -0.1579 -1.2227 -0.6221
  158SOL    HW2  531   3.242   3.601   2.697 -1.3433 -1.2070  1.1940
  159SOL     OW  532   0.546   2.454   3.698 -0.2157 -0.0897 -0.1892
  159SOL    HW1  533   0.623   2.484   3.650 -1.4989  2.4297 -0.8187
  159SOL    HW2  534   0.473   2.469   3.639 -1.3705 -1.2018  0.8812
  160SOL     OW  535   4.555  -0.018   4.123 -0.4197  0.3039  0.3813
  160SOL    HW1  536   4.518   0.027   4.048 -0.8493  1.3895  1.2096
  160SOL    HW2  537   4.495   0.002   4.195 -1.9924 -3.5805  0.3412
  161SOL     OW  538   3.405   3.232   2.753  0.4819 -0.1351 -0.1018
  161SOL    HW1  539   3.494   3.262   2.772  0.9494 -1.1296 -0.6829
  161SOL    HW2  540   3.352   3.271   2.823  1.8605 -2.1134  2.2104
  162SOL     OW  541   0.057   2.238   2.452 -0.3651 -0.5749  0.2933
  162SOL    HW1  542  -0.003   2.272   2.519  0.9802 -0.2276  1.3799
  162SOL    HW2  543   0.143   2.268   2.481  0.4449 -1.8834 -0.6890
  163SOL     OW  544   2.247   2.278   0.113  0.0305  0.3095  0.5528
  163SOL    HW1  545   2.152   2.275   0.115 -0.0538  0.5976 -1.1248
  163SOL    HW2  546   2.268   2.371   0.109  0.3493  0.2298  0.3300
  164SOL     OW  547   0.762   3.229   0.429  0.3406  0.1556  0.2025
  164SOL    HW1  548   0.824   3.218   0.502 -1.4159  2.0335  2.1267
  164SOL    HW2  549   0.679   3.250   0.472 -0.7311  1.5954 -2.3669
  165SOL     OW  550   2.296   1.287   3.818  0.1263  0.4105 -0.4263
  165SOL    HW1  551   2.220   1.251   3.865  1.8386 -2.3294  0.4846
  165SOL    HW2  552   2.281   1.264   3.727  1.7216 -4.2940  0.2212
  166SOL     OW  553   0.256   1.313   2.380 -0.1597 -0.2480  0.5977
  166SOL    HW1  554   0.219   1.227   2.401 -0.1339 -0.3184  0.3589
  166SOL    HW2  555   0.187   1.358   2.332  0.5317 -0.8894 -1.0593
  167SOL     OW  556   2.653   2.908   4.593  0.3590 -0.0270 -0.6108
  167SOL    HW1  557   2.619   2.865   4.515  0.2351 -2.6308  0.7439
  167SOL    HW2  558   2.606   2.867   4.665  2.2355  0.4390  0.9748
  168SOL     OW  559   0.284   1.032   3.201 -0.4642  0.2683  0.2417
  168SOL    HW1  560   0.347   1.056   3.133 -0.1993  0.7817  0.6634
  168SOL    HW2  561   0.303   0.940   3.219  1.0302  0.7428  1.2615
  169SOL     OW  562   0.030   3.142   2.995 -0.0178  0.0207  0.3484
  169SOL    HW1  563   0.040   3.054   3.031  1.1137  0.0446  0.1410
  169SOL    HW2  564   0.096   3.194   3.042  1.1224  0.1700 -1.3315
  170SOL     OW  565   4.572   3.211   2.279  0.7384 -0.1301 -0.1663
  170SOL    HW1  566   4.578   3.116   2.288  0.4699 -0.0165  1.4455
  170SOL    HW2  567   4.596   3.244   2.365 -0.3882  1.2238 -0.3542
  171SOL     OW  568   4.407   3.086   3.216  0.0182  0.3740 -0.1040
  171SOL    HW1  569   4.392   3.173   3.254  2.0508  0.8596 -0.3029
  171SOL    HW2  570   4.414   3.102   3.122 -0.0128 -0.0781 -0.1871
  172SOL     OW  571   4.171   0.245   3.398 -0.0973 -0.8918  0.0873
  172SOL    HW1  572   4.221   0.198   3.331 -0.5391 -0.4546 -0.5560
  172SOL    HW2  573   4.190   0.197   3.479  0.0305 -1.7427 -0.4278
  173SOL     OW  574   3.463   2.534   1.387  0.5973 -0.5544 -0.1720
  173SOL    HW1  575   3.476   2.628   1.395  1.6071 -0.4311 -2.5406
  173SOL    HW2  576   3.453   2.503   1.478  0.1897  1.7960  0.6495
  174SOL     OW  577   0.103   4.773   4.723  0.3877 -0.2739 -0.2887
  174SOL    HW1  578   0.161   4.702   4.749 -0.0076 -1.4577 -2.4101
  174SOL    HW2  579   0.148   4.852   4.751  1.3393 -1.2884  1.2124
  175SOL     OW  580   2.841   3.234   0.878  0.3531 -0.4790 -0.2648
  175SOL    HW1  581   2.827   3.247   0.972 -0.6872  0.3763 -0.5229
  175SOL    HW2  582   2.876   3.317   0.848 -1.1423 -0.0753 -0.9639
  176SOL     OW  583   1.722   0.021   3.079 -0.4627  0.4110 -0.3843
  176SOL    HW1  584   1.725   0.104   3.032  0.9055  0.8081  0.3718
  176SOL    HW2  585   1.672   0.040   3.159  0.8287  0.8240  0.3476
  177SOL     OW  586   3.041   4.713   0.259 -0.4381 -0.0418  0.4592
  177SOL    HW1  587   3.037   4.784   0.322 -1.4874 -0.0778  0.4548
  177SOL    HW2  588   3.005   4.637   0.305 -1.3506 -0.0357 -0.1968
  178SOL     OW  589   4.939   4.288   0.488  0.1532 -0.3306  0.1110
  178SOL    HW1  590   4.915   4.376   0.517 -0.8557 -0.5328 -0.0812
  178SOL    HW2  591   4.905   4.282   0.399  2.3550 -0.0682 -0.7974
  179SOL     OW  592   4.127   0.400   2.768  0.6323  0.2394  0.1710
  179SOL    HW1  593   4.112   0.489   2.736 -1.8059 -0.2995 -0.3963
  179SOL    HW2  594   4.074   0.345   2.711 -0.8415 -1.1785  2.7368
  180SOL     OW  595   4.902   2.131   3.144  0.1045 -0.4990 -0.6489
  180SOL    HW1  596   4.985   2.154   3.186 -0.6479  1.3301 -0.0570
  180SOL    HW2  597   4.922   2.128   3.051  0.8179  0.0957 -0.5225
  181SOL     OW  598   0.023   1.443   1.866 -0.2253  0.0100 -0.2304
  181SOL    HW1  599   0.029   1.491   1.784  0.6314  0.1721 -0.0774
  181SOL    HW2  600   0.091   1.482   1.922 -1.1769  0.3129  0.7670
  182SOL     OW  601   1.146   2.108   4.247  0.0198 -0.1609  0.1516
  182SOL    HW1  602   1.233   2.135   4.273  0.1468 -1.0151  0.6712
  182SOL    HW2  603   1.093   2.117   4.326 -0.1695 -0.4005  0.0550
  183SOL     OW  604   2.355   0.643   1.675 -0.3885 -0.5736 -0.0498
  183SOL    HW1  605   2.343   0.548   1.664 -2.8060 -0.2225 -1.0339
  183SOL    HW2  606   2.357   0.656   1.770 -0.8698 -1.5135  0.1007
  184SOL     OW  607   0.301   3.319   1.421  0.1383 -0.2100  0.1533
  184SOL    HW1  608   0.396   3.316   1.425  0.2211  1.8058  1.3058
  184SOL    HW2  609   0.273   3.228   1.411  2.1079 -1.0562  1.8644
  185SOL     OW  610   3.674   1.411   3.825  0.5191  0.6042 -0.1739
  185SOL    HW1  611   3.768   1.398   3.813  0.3467 -0.5798 -0.3631
  185SOL    HW2  612   3.634   1.365   3.751 -0.1832  1.8995 -0.6358
  186SOL     OW  613   1.659   3.550   3.882 -0.0906  0.3855  0.2070
  186SOL    HW1  614   1.739   3.588   3.846  0.3734 -0.9186 -0.2151
  186SOL    HW2  615   1.673   3.550   3.977 -0.8482  2.8161  0.3797
  187SOL     OW  616   4.253   2.767   4.749 -0.7654  0.2022 -0.2635
  187SOL    HW1  617   4.229   2.676   4.730 -1.5651  0.2046  0.6729
  187SOL    HW2  618   4.334   2.781   4.699 -0.8286 -0.9049 -0.7086
  188SOL     OW  619   0.152   3.416   4.557 -0.2181 -0.1821 -0.0385
  188SOL    HW1  620   0.176   3.332   4.597 -0.3763 -0.3397 -0.2690
  188SOL    HW2  621   0.064   3.401   4.521 -0.5103  0.2772  0.4766
  189SOL     OW  622   2.622   2.304   3.304 -0.0145 -0.2261  0.2587
  189SOL    HW1  623   2.601   2.377   3.246  0.7431  0.0029  0.2595
  189SOL    HW2  624   2.539   2.281   3.346 -0.8196 -1.0676 -1.6554
  190SOL     OW  625   2.643   2.872   1.052  0.1779  0.1334  0.0661
  190SOL    HW1  626   2.711   2.895   1.115 -0.4146  0.4263  0.6152
  190SOL    HW2  627   2.592   2.953   1.041  0.2005  0.0518 -0.7000
  191SOL     OW  628   0.460   0.895   3.992 -0.3003  0.5420 -0.4147
  191SOL    HW1  629   0.529   0.940   4.039 -0.5831 -0.7491  1.3324
  191SOL    HW2  630   0.379   0.924   4.033 -0.7706  1.2732 -1.7750
  192SOL     OW  631   4.128   0.844   0.672  0.1934  0.3903  0.0201
  192SOL    HW1  632   4.205   0.839   0.728 -0.6213 -1.6816  1.0659
  192SOL    HW2  633   4.120   0.757   0.633 -1.4620  0.6222 -0.2564
  193SOL     OW  634   1.943   3.227   0.860  0.8137 -0.9357 -0.4205
  193SOL    HW1  635   2.010   3.203   0.924  0.3008 -0.2699  0.3870
  193SOL    HW2  636   1.870   3.167   0.877  0.3801 -0.2626  0.1426
  194SOL     OW  637   0.359   3.553   0.599 -0.0330 -0.1531  0.5128
  194SOL    HW1  638   0.316   3.535   0.683  1.6900  0.7044  1.6243
  194SOL    HW2  639   0.373   3.647   0.599 -1.7693  0.1746 -1.6708
  195SOL     OW  640   1.166   3.626   3.019 -0.3920 -0.0670  0.2007
  195SOL    HW1  641   1.229   3.697   3.016 -0.4749  0.1512  2.1109
  195SOL    HW2  642   1.090   3.658   2.970 -0.1415  0.8624  0.4133
  196SOL     OW  643   1.374   4.425   0.797  0.2509 -0.0830  0.7461
  196SOL    HW1  644   1.446   4.469   0.751  0.9487 -1.5294  0.3835
  196SOL    HW2  645   1.367   4.472   0.880  0.2243  1.3845 -0.0569
  197SOL     OW  646   1.621   1.369   2.959  0.3196  0.0435  0.4653
  197SOL    HW1  647   1.663   1.380   3.044  0.9477 -1.4846  0.3823
  197SOL    HW2  648   1.529   1.349   2.980  0.2158  0.7572  0.7282
  198SOL     OW  649   4.319   1.090   1.594 -0.0583  0.5371 -0.4576
  198SOL    HW1  650   4.256   1.106   1.665  0.8649  0.9703  0.2818
  198SOL    HW2  651   4.298   1.002   1.562 -0.4369  0.3017  0.4094
  199SOL     OW  652   2.389   0.965   3.218 -0.1366 -0.6538 -0.3609
  199SOL    HW1  653   2.443   1.036   3.186  0.1216 -0.9417 -0.5736
  199SOL    HW2  654   2.356   0.996   3.302 -2.9499  1.1878 -1.9999
  200SOL     OW  655   3.935   0.187   0.530  0.0116  0.3095 -0.2197
  200SOL    HW1  656   3.957   0.270   0.573 -0.2746  0.4162 -0.2749
  200SOL    HW2  657   3.985   0.121   0.578 -0.1875  0.4447  0.1865
  201SOL     OW  658   3.290   4.813   2.993  0.4445 -0.1558  0.2867
  201SOL    HW1  659   3.309   4.741   3.053  1.7776 -0.0423  0.0486
  201SOL    HW2  660   3.299   4.892   3.046 -1.3207 -0.1393  0.6220
  202SOL     OW  661   1.720   1.591   2.289 -0.0343  0.0627 -0.3076
  202SOL    HW1  662   1.658   1.634   2.349 -0.9914 -1.2640 -0.3012
  202SOL    HW2  663   1.775   1.538   2.346  1.4844  1.6082 -0.2643
  203SOL     OW  664   2.681   1.081   0.197 -0.4325 -0.4202 -0.0513
  203SOL    HW1  665   2.757   1.074   0.254 -0.9457 -3.5548  0.4310
  203SOL    HW2  666   2.669   1.175   0.184  1.3424  0.3145  2.7513
  204SOL     OW  667   3.724   1.144   0.742  0.2298  0.1247  0.5702
  204SOL    HW1  668   3.686   1.057   0.726 -1.4972  0.6801  1.3670
  204SOL    HW2  669   3.770   1.136   0.825 -0.7651  0.1843  1.1474
  205SOL     OW  670   3.288   1.511   3.954  0.0519  0.4119  0.4002
  205SOL    HW1  671   3.263   1.457   3.879  0.0759  1.0359 -0.0690
  205SOL    HW2  672   3.272   1.456   4.030 -0.4886 -0.0372 -0.0320
  206SOL     OW  673   2.935   1.453   0.171 -0.0937  0.2713 -0.0928
  206SOL    HW1  674   2.911   1.510   0.098  0.2911  0.8840  0.2506
  206SOL    HW2  675   3.029   1.465   0.180  0.2330 -1.4393 -0.8680
  207SOL     OW  676   4.235   3.654   2.108  0.2604  0.1804 -0.3746
  207SOL    HW1  677   4.142   3.632   2.115 -0.0080  1.5621  0.8059
  207SOL    HW2  678   4.236   3.735   2.058  0.7462  0.7026  0.4622
  208SOL     OW  679   3.203   2.585   4.923 -0.2997 -0.2750 -0.3768
  208SOL    HW1  680   3.127   2.556   4.974  0.6009  1.2180  1.9999
  208SOL    HW2  681   3.278   2.565   4.980  1.0489 -0.8287 -2.2434
  209SOL     OW  682   3.313   0.717   0.570  0.1078 -0.3570 -0.3039
  209SOL    HW1  683   3.336   0.713   0.663  0.0897 -2.0346 -0.3286
  209SOL    HW2  684   3.335   0.806   0.543  2.6409 -0.5848  0.6928
  210SOL     OW  685   1.881   4.280   2.864  0.7902  0.0231  0.1782
  210SOL    HW1  686   1.854   4.201   2.909  0.3080  0.6598  1.0412
  210SOL    HW2  687   1.812   4.296   2.799  1.8038 -1.2446 -1.2886
  211SOL     OW  688   1.363   1.985   2.983  0.6013 -0.8137  0.8904
  211SOL    HW1  689   1.394   2.032   3.060  0.0165 -0.1161  0.7169
  211SOL    HW2  690   1.394   2.037   2.909 -0.0661 -0.6880  0.6935
  212SOL     OW  691   1.266   2.735   3.874 -0.3813 -0.3738 -0.2548
  212SOL    HW1  692   1.268   2.773   3.962  1.9696 -1.5487  0.2761
  212SOL    HW2  693   1.177   2.701   3.864 -0.6740 -0.2798  1.6980
  213SOL     OW  694   1.417   4.712   2.568 -0.3409 -0.3520 -0.6587
  213SOL    HW1  695   1.445   4.785   2.512  0.9242  2.3151  3.0523
  213SOL    HW2  696   1.323   4.705   2.551 -0.0722  0.4812 -2.8420
  214SOL     OW  697   0.319   4.088   1.460  0.0672 -0.1796 -0.6055
  214SOL    HW1  698   0.225   4.075   1.478 -0.1335 -1.3655 -2.2932
  214SOL    HW2  699   0.329   4.064   1.368  1.6450  2.1333 -1.1196
  215SOL     OW  700   3.778   2.965   1.194  0.0145  0.1300  0.2721
  215SOL    HW1  701   3.853   2.960   1.253  0.0448  0.9862  0.3225
  215SOL    HW2  702   3.770   2.877   1.158  0.9459 -0.0147  0.3890
  216SOL     OW  703   1.300   1.717   2.032 -0.3288 -0.0559  0.2570
  216SOL    HW1  704   1.303   1.783   1.963  0.3919 -1.6819 -1.3457
  216SOL    HW2  705   1.324   1.764   2.112 -3.2936  2.3704 -0.1182
  217SOL     OW  706   2.303   3.513   2.664 -0.3437 -0.0070 -0.1844
  217SOL    HW1  707   2.308   3.608   2.665  0.1362  0.0568 -2.6664
  217SOL    HW2  708   2.210   3.493   2.676 -0.5563  0.8004 -0.4565
  218SOL     OW  709   2.989   0.721   3.112  0.4370 -0.6571  0.3934
  218SOL    HW1  710   3.065   0.769   3.144 -0.5863  0.8573  0.6743
  218SOL    HW2  711   2.936   0.787   3.067 -0.4051 -1.8080 -0.3671
  219SOL     OW  712   0.716   2.229   2.208  0.0080  0.1922  0.6204
  219SOL    HW1  713   0.792   2.274   2.245 -0.9899  1.0373  1.7032
  219SOL    HW2  714   0.723   2.139   2.241  1.1901 -0.0912 -0.3147
  220SOL     OW  715   3.098   2.998   3.165  0.5388  0.3887  0.0714
  220SOL    HW1  716   3.048   2.989   3.246  1.5624  3.5104  1.1837
  220SOL    HW2  717   3.043   3.054   3.109  0.9080  0.2671 -0.4184
  221SOL     OW  718   2.253   0.534   4.302  0.3094 -0.1503 -0.0193
  221SOL    HW1  719   2.214   0.474   4.238  0.0466 -0.0123  0.0122
  221SOL    HW2  720   2.291   0.477   4.369  2.1475 -0.3844 -1.1689
  222SOL     OW  721   3.307   0.401   0.100  0.1305 -0.7398  0.0064
  222SOL    HW1  722   3.296   0.462   0.027 -0.3521 -1.0057 -0.1522
  222SOL    HW2  723   3.313   0.457   0.177  1.0817 -0.4368 -0.2745
  223SOL     OW  724   2.507   3.223   3.029  0.0255  0.6869  0.0795
  223SOL    HW1  725   2.480   3.311   3.003  1.5825  1.2030  0.1210
  223SOL    HW2  726   2.431   3.167   3.008 -1.4022  2.1809  1.0814
  224SOL     OW  727   0.564   3.218   3.576  0.0781  0.3333  0.0130
  224SOL    HW1  728   0.585   3.298   3.528  1.0512  0.5589  0.7703
  224SOL    HW2  729   0.571   3.148   3.511 -0.7824  0.8503 -0.6542
  225SOL     OW  730   0.759   0.983   4.337  0.5448 -0.0669  0.2797
  225SOL    HW1  731   0.769   1.075   4.311  0.1365 -0.0493  0.1853
  225SOL    HW2  732   0.668   0.962   4.316  0.3408 -0.1927  1.2518
  226SOL     OW  733   2.786   1.376   3.907  0.2229  0.2876  0.8621
  226SOL    HW1  734   2.864   1.340   3.865  0.2026  0.4346  0.6983
  226SOL    HW2  735   2.713   1.340   3.858  0.2031  0.5669  0.6827
  227SOL     OW  736   3.557   2.954   3.115 -0.4066 -0.5137  0.0182
  227SOL    HW1  737   3.528   2.905   3.192  0.4420  0.4916  1.0071
  227SOL    HW2  738   3.525   3.043   3.129 -0.6208 -0.4120 -1.0209
  228SOL     OW  739   1.304   4.449   1.550  0.1716 -0.3359 -0.3194
  228SOL    HW1  740   1.382   4.505   1.541 -0.5979  0.9180  0.3847
  228SOL    HW2  741   1.271   4.440   1.461  0.1303  0.6355 -0.4193
  229SOL     OW  742   2.431   3.789   1.633  0.1268  0.3139 -0.5818
  229SOL    HW1  743   2.339   3.816   1.627  0.8293  2.7393 -2.1531
  229SOL    HW2  744   2.451   3.752   1.547  0.7213  0.1965 -0.3986
  230SOL     OW  745   3.762   4.889   3.131 -0.1281  0.1285 -0.2021
  230SOL    HW1  746   3.685   4.930   3.093 -1.6872 -2.9231 -0.6205
  230SOL    HW2  747   3.836   4.935   3.092 -1.6699  2.8972 -0.0797
  231SOL     OW  748   0.802   2.736   4.356  0.5391  0.0435  0.9068
  231SOL    HW1  749   0.736   2.696   4.300  0.2442 -0.4211  1.5661
  231SOL    HW2  750   0.782   2.830   4.355  1.4697  0.2654 -0.9624
  232SOL     OW  751   4.202   2.868   3.116 -0.4803 -0.5902 -0.4181
  232SOL    HW1  752   4.288   2.837   3.085 -1.4273 -3.8321 -0.1819
  232SOL    HW2  753   4.168   2.796   3.168 -3.1561  0.8214 -0.0475
  233SOL     OW  754   1.377   3.131   2.786 -0.6840 -0.4278 -0.1469
  233SOL    HW1  755   1.351   3.135   2.693  1.9165 -0.4302 -0.9408
  233SOL    HW2  756   1.404   3.041   2.799 -3.3530 -1.1189  1.3964
  234SOL     OW  757   3.969   4.382   3.525  0.3878 -0.1140 -0.7688
  234SOL    HW1  758   3.948   4.439   3.451 -1.5281 -0.5606 -0.6202
  234SOL    HW2  759   3.952   4.293   3.493  2.6094 -0.6039 -0.7619
  235SOL     OW  760   0.053   4.302   1.428 -0.3569  0.4543  0.1876
  235SOL    HW1  761  -0.038   4.307   1.456 -1.7264 -2.9610 -2.8027
  235SOL    HW2  762   0.052   4.337   1.339  1.0442 -0.4749 -0.2223
  236SOL     OW  763   1.738   1.861   2.843  0.2899 -0.0931 -0.0332
  236SOL    HW1  764   1.746   1.875   2.938 -1.3111 -0.7940  0.2370
  236SOL    HW2  765   1.691   1.938   2.812 -0.5730 -0.5895  0.0116
  237SOL     OW  766   1.493   2.447   3.564 -0.9697 -0.0353  0.1853
  237SOL    HW1  767   1.454   2.455   3.477 -1.0934 -0.8194  0.1628
  237SOL    HW2  768   1.566   2.509   3.563 -1.1744  0.2000 -0.3621
  238SOL     OW  769   1.818   1.108   4.716  0.1786  0.4046  0.2962
  238SOL    HW1  770   1.773   1.114   4.799 -0.3036 -1.3437  0.2040
  238SOL    HW2  771   1.759   1.058   4.660  0.9715  0.5956 -0.7476
  239SOL     OW  772   3.972   0.586   0.854 -0.3674  0.1414 -0.0318
  239SOL    HW1  773   3.978   0.676   0.820  0.8671  0.4866  1.0341
  239SOL    HW2  774   3.889   0.583   0.901 -0.1787  0.8830  0.3571
  240SOL     OW  775   0.392   3.261   3.196  0.3585 -0.0600 -0.0313
  240SOL    HW1  776   0.301   3.276   3.222  0.2598 -1.6615  0.6833
  240SOL    HW2  777   0.416   3.179   3.240  2.0360  0.1466 -0.4966
  241SOL     OW  778   1.392   0.941   0.014  0.2745  0.1668  0.0340
  241SOL    HW1  779   1.308   0.985  -0.001  1.0806  1.6689 -0.2946
  241SOL    HW2  780   1.413   0.962   0.105  0.1276 -0.5190  0.2285
  242SOL     OW  781   4.320   3.700   2.755 -0.0273  0.2084 -0.0731
  242SOL    HW1  782   4.361   3.762   2.816  0.4460  1.7503 -1.8618
  242SOL    HW2  783   4.385   3.631   2.743  0.3921  0.5494  0.2078
  243SOL     OW  784   4.819   4.923   0.646  0.1868 -0.2063 -0.1890
  243SOL    HW1  785   4.817   4.843   0.594  0.8965  0.3124 -1.0478
  243SOL    HW2  786   4.886   4.978   0.604  0.1952  0.5678  0.7777
  244SOL     OW  787   1.424   1.781   3.550  0.0382  0.5654 -0.1232
  244SOL    HW1  788   1.394   1.788   3.641  1.1799 -0.5422  0.3571
  244SOL    HW2  789   1.413   1.688   3.528 -0.4311  0.8580 -1.2053
  245SOL     OW  790   3.860   1.821   2.069  0.5102  0.6572 -0.1115
  245SOL    HW1  791   3.920   1.839   2.141  0.2512  3.0914 -0.4224
  245SOL    HW2  792   3.908   1.760   2.013  1.4639  0.2071  1.1454
  246SOL     OW  793   2.581   4.076   2.598  0.2007 -0.3327  0.4593
  246SOL    HW1  794   2.555   4.101   2.686 -2.2745 -1.3130  0.0722
  246SOL    HW2  795   2.598   4.159   2.553 -0.9556  0.3083  1.1671
  247SOL     OW  796   2.912   1.652   2.812 -0.0054 -0.0251  0.1243
  247SOL    HW1  797   2.905   1.747   2.803  1.1273  0.2031  1.2809
  247SOL    HW2  798   2.979   1.626   2.750  0.1830  0.0280  0.3062
  248SOL     OW  799   3.808   4.848   3.789  0.5226  0.3045 -0.4972
  248SOL    HW1  800   3.726   4.858   3.742  1.0377  1.5550 -1.1688
  248SOL    HW2  801   3.853   4.776   3.744 -0.2855 -0.5520  0.0317
  249SOL     OW  802   1.050   4.091   1.907  0.0541 -0.3279 -0.0222
  249SOL    HW1  803   1.142   4.108   1.889  0.2398 -1.5892 -0.4222
  249SOL    HW2  804   1.004   4.166   1.871  0.8478 -0.2488 -0.9082
  250SOL     OW  805   4.158   4.429   3.731 -0.3928  0.2203 -0.7289
  250SOL    HW1  806   4.093   4.455   3.797  1.2779  0.4662  0.8907
  250SOL    HW2  807   4.105   4.394   3.659 -2.3872  1.6178 -0.0587
  251SOL     OW  808   0.527   4.998   4.292 -0.1233  0.1282 -0.0349
  251SOL    HW1  809   0.506   4.989   4.199 -0.8731  0.0765  0.1367
  251SOL    HW2  810   0.512   4.911   4.328  0.4962  0.0637  0.0714
  252SOL     OW  811   0.084   2.959   3.449  0.1776 -0.1356  0.0740
  252SOL    HW1  812   0.017   3.015   3.489 -0.1187 -0.9073  0.6849
  252SOL    HW2  813   0.165   2.983   3.495 -0.0014 -0.4026  0.5388
  253SOL     OW  814   0.778   2.801   2.659 -0.3144 -0.1497  0.6308
  253SOL    HW1  815   0.828   2.773   2.736  1.3113  1.5237  0.2447
  253SOL    HW2  816   0.703   2.741   2.656 -1.0169  0.3440  4.0782
  254SOL     OW  817   1.645   2.220   2.257 -0.1350 -0.5281  0.0157
  254SOL    HW1  818   1.693   2.192   2.335  0.6220 -1.1470 -0.6569
  254SOL    HW2  819   1.597   2.142   2.230  1.4784 -1.0562 -1.4985
  255SOL     OW  820   1.991   3.638   0.587  0.5385  0.3144 -0.0228
  255SOL    HW1  821   2.084   3.638   0.564  0.4753  1.7593 -0.3908
  255SOL    HW2  822   1.984   3.571   0.655  1.9493  0.5012  0.3568
  256SOL     OW  823   2.869   0.252   0.157  0.3032  0.1175  0.0478
  256SOL    HW1  824   2.784   0.227   0.193  0.1753 -1.3100 -1.1636
  256SOL    HW2  825   2.929   0.244   0.231 -0.4474  0.1603  0.6734
  257SOL     OW  826   4.076   4.645   1.996 -0.3949  0.3764  0.4822
  257SOL    HW1  827   4.005   4.616   1.938  0.3668 -1.4497  0.3750
  257SOL    HW2  828   4.062   4.739   2.007 -0.8748  0.7013 -2.2214
  258SOL     OW  829   0.083   3.215   1.747  0.5571  0.2260  0.5076
  258SOL    HW1  830   0.147   3.157   1.788  1.3591  1.3367  0.8758
  258SOL    HW2  831   0.066   3.282   1.814 -0.2638  0.4851  0.0532
  259SOL     OW  832   3.359   1.314   0.047  0.0966  0.0990 -0.3620
  259SOL    HW1  833   3.431   1.277   0.099 -0.8110 -0.1147  0.7884
  259SOL    HW2  834   3.359   1.262  -0.033  1.1641  0.0474 -0.3443
  260SOL     OW  835   2.903   0.237   4.168 -0.2083 -0.1581  0.3274
  260SOL    HW1  836   2.937   0.324   4.146  1.0875 -0.7651 -0.1531
  260SOL    HW2  837   2.859   0.249   4.252  1.0977  0.7079  0.9229
  261SOL     OW  838   2.627   0.362   1.338  0.5958  0.5854 -0.2095
  261SOL    HW1  839   2.640   0.269   1.322 -0.2939  0.7226 -2.0453
  261SOL    HW2  840   2.714   0.400   1.333  1.1283 -0.2786  1.8149
  262SOL     OW  841   0.815   0.920   3.202 -0.1383  0.2467 -0.6260
  262SOL    HW1  842   0.873   0.987   3.166 -0.0660 -0.0358 -1.0512
  262SOL    HW2  843   0.750   0.906   3.133 -0.9652  0.8612  0.0119
  263SOL     OW  844   4.039   0.122   1.281  0.0920 -0.4071  0.1156
  263SOL    HW1  845   4.087   0.201   1.306 -1.6379  0.8875 -0.5101
  263SOL    HW2  846   4.025   0.132   1.187  1.2199 -2.2570 -0.2878
  264SOL     OW  847   3.096   0.514   0.396  0.5037  0.4999  0.8488
  264SOL    HW1  848   3.148   0.504   0.476  2.2387 -0.4530 -0.3189
  264SOL    HW2  849   3.082   0.424   0.367 -1.0302  0.7964  0.6273
  265SOL     OW  850   0.385   3.041   2.582 -0.4302 -0.2799 -0.5931
  265SOL    HW1  851   0.479   3.033   2.597 -0.6910 -1.2988  0.6206
  265SOL    HW2  852   0.370   3.135   2.571  0.6381 -0.0472 -0.1599
  266SOL     OW  853   4.405   2.530   0.744 -0.2808  0.3186  0.7149
  266SOL    HW1  854   4.394   2.576   0.661 -1.1310 -0.6018  0.2987
  266SOL    HW2  855   4.497   2.544   0.767  0.2988 -0.4137 -1.0040
  267SOL     OW  856   4.567   1.432   3.469  0.3120 -0.3299  0.0362
  267SOL    HW1  857   4.480   1.439   3.509 -0.1315  0.0565 -0.9494
  267SOL    HW2  858   4.565   1.349   3.421  0.5184 -0.3575  0.0735
  268SOL     OW  859   1.075   2.396   4.387  0.4747  0.4301  0.3132
  268SOL    HW1  860   1.019   2.339   4.439  0.8324  1.0288  1.4025
  268SOL    HW2  861   1.054   2.484   4.419  0.2072  0.8807 -1.0592
  269SOL     OW  862   3.548   2.720   4.177  0.6175 -0.5195  0.3898
  269SOL    HW1  863   3.519   2.629   4.185  0.9614 -0.5737  1.1381
  269SOL    HW2  864   3.468   2.772   4.190 -0.1035 -0.7225 -2.6528
  270SOL     OW  865   0.858   0.142   1.404  0.0600  0.9418  0.7355
  270SOL    HW1  866   0.843   0.194   1.325  1.6302  0.2893 -0.0218
  270SOL    HW2  867   0.770   0.116   1.432 -0.5376  1.3248 -0.6990
  271SOL     OW  868   0.842   4.499   3.498  0.0154 -0.4499  0.3830
  271SOL    HW1  869   0.771   4.517   3.437 -0.7920 -1.0715  1.1168
  271SOL    HW2  870   0.914   4.467   3.443 -0.2645  0.1685 -0.3577
  272SOL     OW  871   1.762   1.923   1.729  0.2190  0.4300  0.2809
  272SOL    HW1  872   1.784   1.831   1.713 -0.5579  0.1906  0.5652
  272SOL    HW2  873   1.798   1.941   1.817 -1.8451 -0.3588  1.3403
  273SOL     OW  874   4.383   0.700   3.642 -0.2530 -0.1596  0.3146
  273SOL    HW1  875   4.348   0.614   3.618  3.4503 -1.8198  0.2254
  273SOL    HW2  876   4.393   0.696   3.737 -0.9096  0.5690  0.4240
  274SOL     OW  877   3.031   1.543   2.533  0.1148  0.0831  0.2152
  274SOL    HW1  878   3.065   1.633   2.532  2.6633 -0.8111  1.1130
  274SOL    HW2  879   2.973   1.540   2.456 -0.7973  2.7129  0.6633
  275SOL     OW  880   1.896   4.653   1.110  0.3231  0.2011 -0.3359
  275SOL    HW1  881   1.983   4.677   1.143 -0.7568  1.0335  2.1286
  275SOL    HW2  882   1.840   4.728   1.133 -0.9598 -0.0260 -2.4481
  276SOL     OW  883   2.479   4.122   3.062 -0.2986 -0.9412  0.5091
  276SOL    HW1  884   2.528   4.109   3.143 -0.1963 -0.7068  0.4863
  276SOL    HW2  885   2.498   4.212   3.036 -0.6911 -0.8646  0.4696
  277SOL     OW  886   3.930   0.597   3.343 -0.6003  0.0649 -0.1156
  277SOL    HW1  887   4.002   0.562   3.290 -0.8994 -1.4839  0.4495
  277SOL    HW2  888   3.964   0.599   3.432 -1.3943 -1.1773  0.2420
  278SOL     OW  889   1.396   0.902   2.573  0.0824 -0.3961  0.7085
  278SOL    HW1  890   1.436   0.954   2.504  0.4625  1.7487  2.4247
  278SOL    HW2  891   1.330   0.849   2.529 -0.7338  1.9800 -1.1126
  279SOL     OW  892   0.606   0.470   2.803 -0.1866 -0.1204 -0.1784
  279SOL    HW1  893   0.621   0.467   2.897 -1.1291  0.5700  0.0105
  279SOL    HW2  894   0.537   0.406   2.787  2.1373 -2.6186 -0.9067
  280SOL     OW  895   4.768   3.376   1.319 -0.1688  0.5899 -0.2675
  280SOL    HW1  896   4.710   3.305   1.347  0.5905  0.2947  0.6147
  280SOL    HW2  897   4.832   3.384   1.389  0.4152  1.4180 -0.8687
  281SOL     OW  898   2.197   2.427   1.736  0.0334  0.3622 -0.6974
  281SOL    HW1  899   2.237   2.444   1.651 -1.0027  1.8285 -0.9190
  281SOL    HW2  900   2.248   2.479   1.798  0.7325 -0.6361 -0.4160
  282SOL     OW  901   0.963   4.428   4.670  0.1657 -0.5492 -0.1676
  282SOL    HW1  902   1.053   4.397   4.672 -0.1787 -1.5509  1.3467
  282SOL    HW2  903   0.910   4.349   4.658 -0.4992  0.1770 -2.7666
  283SOL     OW  904   3.193   1.178   0.919 -0.4648 -0.4217 -0.5360
  283SOL    HW1  905   3.287   1.162   0.912 -0.6057 -1.1531 -0.8962
  283SOL    HW2  906   3.184   1.273   0.915  0.0168 -0.3976 -4.2917
  284SOL     OW  907   0.531   2.941   0.432 -0.6549 -0.4575  0.6011
  284SOL    HW1  908   0.476   2.885   0.377  1.7800 -1.7518 -0.7054
  284SOL    HW2  909   0.493   2.934   0.519 -2.0957 -1.8857 -0.0851
  285SOL     OW  910   3.748   4.748   0.346  0.3874  0.2626  0.2307
  285SOL    HW1  911   3.825   4.756   0.291 -1.2191  1.7839 -1.9715
  285SOL    HW2  912   3.695   4.680   0.305  1.4823 -2.5692  3.0945
  286SOL     OW  913   2.872   4.393   4.549  0.4203 -0.3329 -0.1894
  286SOL    HW1  914   2.885   4.301   4.573 -0.4284  0.2515  2.8782
  286SOL    HW2  915   2.959   4.432   4.556  0.2815 -0.2930  1.6569
  287SOL     OW  916   3.034   3.820   2.966  0.8606  0.0187 -0.3143
  287SOL    HW1  917   2.964   3.884   2.967  1.5879  0.8204  0.3583
  287SOL    HW2  918   3.024   3.771   3.048  1.8976  1.0550  0.4581
  288SOL     OW  919   3.081   0.917   0.516  0.3446 -0.2605 -0.2370
  288SOL    HW1  920   3.060   1.007   0.542 -1.1641 -0.7037  0.1634
  288SOL    HW2  921   3.087   0.869   0.599 -1.5349 -1.0576 -0.5062
  289SOL     OW  922   0.999   2.049   0.932 -1.1285 -0.3561  0.0702
  289SOL    HW1  923   0.985   2.096   1.013 -1.2802  1.5611 -1.0150
  289SOL    HW2  924   0.914   2.049   0.888 -0.9902 -1.1418 -0.2256
  290SOL     OW  925   1.271   3.234   1.306 -0.4211 -0.0675 -0.0641
  290SOL    HW1  926   1.272   3.176   1.382  0.6062 -0.5191 -0.4061
  290SOL    HW2  927   1.185   3.276   1.310 -1.7034 -2.4312 -0.4125
  291SOL     OW  928   3.866   0.365   4.497  0.1248 -0.3723 -0.1486
  291SOL    HW1  929   3.797   0.388   4.561  0.8005  0.9528  0.1507
  291SOL    HW2  930   3.932   0.433   4.509 -0.3201  0.7673 -3.2167
  292SOL     OW  931   2.512   1.851   2.215  0.0913 -0.0109 -0.1065
  292SOL    HW1  932   2.600   1.849   2.253 -0.5240 -0.5946  1.3609
  292SOL    HW2  933   2.495   1.943   2.197  1.0154  0.0993 -0.4433
  293SOL     OW  934   3.774   1.512   0.963  0.1227 -0.2007 -0.2552
  293SOL    HW1  935   3.722   1.489   0.886 -2.1226 -0.5969  1.2913
  293SOL    HW2  936   3.750   1.446   1.028  0.6527  1.1185  1.3296
  294SOL     OW  937   3.124   0.992   2.734  0.3978 -0.3596 -0.1368
  294SOL    HW1  938   3.096   0.910   2.693  2.6400 -0.8720 -0.8289
  294SOL    HW2  939   3.157   0.966   2.820 -1.4975  0.2721  0.8168
  295SOL     OW  940   1.666   2.298   0.823  0.5321  0.4170 -0.1522
  295SOL    HW1  941   1.656   2.379   0.874 -0.0383  0.6069 -0.5488
  295SOL    HW2  942   1.655   2.326   0.732 -1.2892 -0.3355 -0.2060
  296SOL     OW  943   4.680   1.288   3.099  0.1717 -0.9512 -0.3179
  296SOL    HW1  944   4.612   1.304   3.164 -0.0964  1.0278 -1.0301
  296SOL    HW2  945   4.641   1.227   3.037 -0.1504 -1.5604  0.4748
  297SOL     OW  946   2.052   2.236   3.224  0.6094 -0.3925 -0.1154
  297SOL    HW1  947   2.015   2.258   3.310  1.6737  1.0275  0.0098
  297SOL    HW2  948   2.145   2.256   3.232  0.6238  0.3588 -1.7813
  298SOL     OW  949   1.182   0.288   4.769 -0.0014  0.3225  0.2489
  298SOL    HW1  950   1.218   0.308   4.856 -0.8141  0.4064  0.5750
  298SOL    HW2  951   1.228   0.348   4.710 -0.1986  1.0164  0.7778
  299SOL     OW  952   1.257   4.814   2.986  0.2971 -0.0855  0.1504
  299SOL    HW1  953   1.350   4.811   3.008 -0.0301 -1.2378  1.5210
  299SOL    HW2  954   1.236   4.726   2.957  0.2910  0.9320 -3.3313
  300SOL     OW  955   2.002   3.298   4.020 -0.1408 -0.0476 -0.4140
  300SOL    HW1  956   1.970   3.261   4.102 -0.3531  0.3249 -0.3271
  300SOL    HW2  957   1.924   3.303   3.964 -0.4671  1.7954  0.1408
  301SOL     OW  958   3.544   2.145   0.150  1.1323 -0.0889 -0.5082
  301SOL    HW1  959   3.530   2.156   0.055 -1.5447 -0.9843 -0.3004
  301SOL    HW2  960   3.559   2.052   0.161 -2.4710 -0.7128  0.2330
  302SOL     OW  961   3.630   0.083   4.818  0.3278  0.2298  0.2808
  302SOL    HW1  962   3.621   0.169   4.858  0.1011  0.5072 -0.3530
  302SOL    HW2  963   3.716   0.085   4.775  0.5143 -0.0215  0.6305
  303SOL     OW  964   1.023   3.387   1.326 -0.6242  0.2430  0.0716
  303SOL    HW1  965   0.963   3.406   1.253 -0.7437 -1.5720 -0.3788
  303SOL    HW2  966   0.986   3.433   1.401 -1.4388  0.8078 -0.6572
  304SOL     OW  967   4.015   2.247   4.429  0.0862 -0.2066 -0.0917
  304SOL    HW1  968   4.033   2.153   4.427  0.4032 -0.1412 -0.4750
  304SOL    HW2  969   4.048   2.280   4.346  0.2161  0.2887  0.1501
  305SOL     OW  970   0.186   2.223   2.012  0.0389  0.1186  0.0531
  305SOL    HW1  971   0.184   2.312   1.976 -0.8404  0.2788  0.4705
  305SOL    HW2  972   0.149   2.231   2.100 -0.3241 -0.7013 -0.0082
  306SOL     OW  973   3.123   2.647   2.361 -0.3745  0.2167  0.2811
  306SOL    HW1  974   3.163   2.645   2.448  0.2973  0.8009 -0.0068
  306SOL    HW2  975   3.156   2.728   2.321  0.6600 -0.8703 -1.1427
  307SOL     OW  976   2.708   4.640   0.569  0.7152 -0.0692  0.4736
  307SOL    HW1  977   2.679   4.707   0.507  0.3720 -0.1247  0.5718
  307SOL    HW2  978   2.801   4.631   0.553  0.4091 -1.0224 -0.9526
  308SOL     OW  979   0.323   3.329   2.249 -0.1277  0.9653  0.2523
  308SOL    HW1  980   0.334   3.326   2.154  1.7187  1.0661  0.4400
  308SOL    HW2  981   0.344   3.419   2.273  2.5677  0.1997  1.0636
  309SOL     OW  982   2.780   3.908   4.040  0.6257  0.4778  0.0951
  309SOL    HW1  983   2.860   3.858   4.055  1.5443  1.7321 -0.3985
  309SOL    HW2  984   2.771   3.910   3.945  0.9176  1.6700  0.0761
  310SOL     OW  985   2.292   1.992   4.151  0.2976  0.1655 -0.3105
  310SOL    HW1  986   2.208   2.038   4.146 -0.2982 -0.8442  0.2578
  310SOL    HW2  987   2.271   1.904   4.180  1.4635 -0.4069 -1.0749
  311SOL     OW  988   3.964   1.694   1.007 -0.7000 -0.3255 -0.1915
  311SOL    HW1  989   3.917   1.623   0.963 -1.1369  0.6886 -1.4170
  311SOL    HW2  990   3.898   1.762   1.022  0.3282  1.2208 -2.1371
  312SOL     OW  991   0.911   4.505   0.800  0.5131 -0.1208  0.9245
  312SOL    HW1  992   0.952   4.426   0.836  0.8952  0.4456  1.7767
  312SOL    HW2  993   0.980   4.545   0.746  0.5850  0.0318  1.1261
  313SOL     OW  994   3.847   4.139   3.432 -0.4236 -0.6094  0.0277
  313SOL    HW1  995   3.844   4.048   3.400 -1.7060 -0.6892  0.3118
  313SOL    HW2  996   3.755   4.167   3.432 -0.0008  0.8984 -0.6291
  314SOL     OW  997   2.301   3.099   2.219  0.1471  0.2162 -0.5280
  314SOL    HW1  998   2.306   3.044   2.140  2.3089 -1.1601  0.4660
  314SOL    HW2  999   2.391   3.128   2.233 -0.1597  0.2961  1.5273
  315SOL     OW 1000   2.470   3.191   4.463 -0.3927 -0.2138 -0.0663
  315SOL    HW1 1001   2.420   3.114   4.435  1.7705 -1.4550 -0.8146
  315SOL    HW2 1002   2.452   3.198   4.557  0.5297 -2.7039  0.4063
  316SOL     OW 1003   3.988   2.443   1.428  0.1574  0.2092  0.4297
  316SOL    HW1 1004   4.040   2.397   1.363 -0.3184  0.6417 -0.2764
  316SOL    HW2 1005   3.906   2.395   1.432 -0.5214  1.2329 -0.6530
  317SOL     OW 1006   2.240   0.631   2.673  0.2035  0.2824 -0.7544
  317SOL    HW1 1007   2.155   0.619   2.715  1.6770 -2.7857  1.8262
  317SOL    HW2 1008   2.233   0.585   2.590 -0.7389  0.2338 -0.6599
  318SOL     OW 1009   1.524   0.660   2.351 -0.6181 -0.0266 -0.1285
  318SOL    HW1 1010   1.604   0.631   2.393 -0.9628  1.5038  1.7769
  318SOL    HW2 1011   1.550   0.687   2.263  0.9648  0.4695  0.4709
  319SOL     OW 1012   1.235   0.540   0.562  0.1625 -0.1385  0.1948
  319SOL    HW1 1013   1.225   0.599   0.488  1.9896  0.3905  0.3208
  319SOL    HW2 1014   1.148   0.501   0.574 -1.1607  2.6370  0.2416
  320SOL     OW 1015   4.760   2.550   1.604  0.3746  0.8089  0.0647
  320SOL    HW1 1016   4.848   2.556   1.642 -0.1414 -1.0812  1.7653
  320SOL    HW2 1017   4.758   2.464   1.561 -0.6819  0.7494  0.2052
  321SOL     OW 1018   0.770   0.694   1.628 -0.6515 -0.0093 -0.0823
  321SOL    HW1 1019   0.845   0.739   1.591 -0.4173 -0.1707  0.1950
  321SOL    HW2 1020   0.805   0.644   1.702 -0.7918 -1.1262 -0.7533
  322SOL     OW 1021   1.415   3.505   3.169 -0.4051 -0.1255 -0.1103
  322SOL    HW1 1022   1.424   3.410   3.161 -0.0213 -0.0887 -0.0984
  322SOL    HW2 1023   1.454   3.541   3.090  0.0551  0.0552  0.1966
  323SOL     OW 1024   0.058   4.763   1.280  0.2474  0.0652  0.1877
  323SOL    HW1 1025  -0.023   4.715   1.262  0.6421 -0.4029 -0.3447
  323SOL    HW2 1026   0.045   4.849   1.240 -0.0506  0.0527  0.2555
  324SOL     OW 1027   2.724   2.399   0.160 -0.4198  0.0634 -0.1335
  324SOL    HW1 1028   2.743   2.473   0.217  0.0599  0.3549 -0.6679
  324SOL    HW2 1029   2.684   2.437   0.082  1.9683  0.0527 -1.4506
  325SOL     OW 1030   1.565   0.559   3.556 -0.2716 -0.1972  0.0519
  325SOL    HW1 1031   1.591   0.482   3.607 -2.4174 -0.9611  0.1003
  325SOL    HW2 1032   1.471   0.566   3.570 -0.4766  1.1975 -1.6721
  326SOL     OW 1033   4.549   0.447   4.478  0.0234 -0.4295  0.5800
  326SOL    HW1 1034   4.560   0.536   4.513  0.8256 -0.7720  1.2184
  326SOL    HW2 1035   4.522   0.461   4.387  1.0295  0.4750  0.3987
  327SOL     OW 1036   3.428   2.112   3.836  0.2064  0.3560  0.2949
  327SOL    HW1 1037   3.398   2.039   3.782  1.8513  0.4640 -0.8273
  327SOL    HW2 1038   3.433   2.076   3.924 -0.6494 -0.3759  0.0639
  328SOL     OW 1039   3.058   2.770   1.914 -0.0576  0.1057  0.0346
  328SOL    HW1 1040   3.064   2.843   1.976 -2.0439  0.6400 -0.3603
  328SOL    HW2 1041   3.083   2.693   1.966  1.8338  0.9650  0.5198
  329SOL     OW 1042   0.193   0.488   1.062  0.5220 -0.6290 -0.0857
  329SOL    HW1 1043   0.221   0.570   1.022 -1.4885 -0.6491 -1.7468
  329SOL    HW2 1044   0.274   0.444   1.087  1.8953  0.1027 -2.8457
  330SOL     OW 1045   2.924   0.002   2.144 -0.2060  0.2933  0.1159
  330SOL    HW1 1046   3.012   0.036   2.164  0.0464 -0.2084 -0.1170
  330SOL    HW2 1047   2.882   0.074   2.096 -0.2432  0.8746  0.9989
  331SOL     OW 1048   3.121   4.373   0.904 -0.2565  0.3408 -0.2637
  331SOL    HW1 1049   3.147   4.439   0.839  0.6053  1.8656  1.5578
  331SOL    HW2 1050   3.174   4.296   0.882  0.6964  1.1328 -0.8212
  332SOL     OW 1051   4.317   3.341   0.878  0.3576  0.8158 -0.1005
  332SOL    HW1 1052   4.400   3.352   0.832 -1.4474  0.5243 -3.7455
  332SOL    HW2 1053   4.278   3.428   0.879  0.4498  0.8668  1.2184
  333SOL     OW 1054   4.916   0.384   1.152 -0.2309  0.4573 -0.6346
  333SOL    HW1 1055   4.857   0.432   1.094  1.4011  1.9712 -1.1180
  333SOL    HW2 1056   5.004   0.406   1.121  0.6417 -0.4667  1.0313
  334SOL     OW 1057   4.359   4.281   3.517  0.1199 -0.0457  0.2715
  334SOL    HW1 1058   4.384   4.338   3.444 -0.0399 -0.8937 -0.4796
  334SOL    HW2 1059   4.392   4.325   3.595 -0.7256  1.4873 -0.1811
  335SOL     OW 1060   1.696  -0.012   4.459 -0.3099  0.3175 -0.2549
  335SOL    HW1 1061   1.689   0.016   4.550  0.3527  0.3086 -0.2003
  335SOL    HW2 1062   1.722   0.067   4.412 -1.2091  0.4606 -0.5279
  336SOL     OW 1063   1.656   1.032   4.922 -0.2142 -0.0048  0.2372
  336SOL    HW1 1064   1.562   1.016   4.926 -0.3624 -0.1517 -2.3924
  336SOL    HW2 1065   1.696   0.947   4.939 -0.5292  0.0818  1.4820
  337SOL     OW 1066   3.655   2.860   2.868 -0.3897 -0.3323 -0.4095
  337SOL    HW1 1067   3.728   2.921   2.858 -0.2951 -0.6451 -1.9321
  337SOL    HW2 1068   3.619   2.880   2.954  1.0879  0.2643  0.1088
  338SOL     OW 1069   3.324   2.964   1.912 -0.0073 -0.3406  0.0471
  338SOL    HW1 1070   3.374   2.902   1.859  0.0168 -1.7988  1.6709
  338SOL    HW2 1071   3.364   2.959   1.999 -0.7337  1.1484  0.5051
  339SOL     OW 1072   0.752   3.479   3.972 -0.8953  0.1260  0.2589
  339SOL    HW1 1073   0.751   3.396   4.020 -1.6139  1.2870  2.4119
  339SOL    HW2 1074   0.810   3.535   4.023  0.3259  0.7288 -1.6740
  340SOL     OW 1075   0.741   1.033   2.587 -0.5526  0.3659  0.6363
  340SOL    HW1 1076   0.674   0.968   2.567 -0.9912  1.8127 -3.8350
  340SOL    HW2 1077   0.821   0.998   2.548  0.3980  0.4851  2.3737
  341SOL     OW 1078   3.609   1.709   0.700 -0.5860 -0.3023 -0.2143
  341SOL    HW1 1079   3.631   1.617   0.684 -1.7216 -0.3473 -1.6881
  341SOL    HW2 1080   3.693   1.752   0.713 -0.0291 -1.5128  0.3369
  342SOL     OW 1081   4.165   3.571   1.719  0.2070  0.4713  0.3893
  342SOL    HW1 1082   4.219   3.635   1.764  0.6398 -0.2578  0.9376
  342SOL    HW2 1083   4.225   3.524   1.662 -0.0192  0.2728  0.3106
  343SOL     OW 1084   3.137   2.982   3.841  0.0398 -0.0875 -0.8565
  343SOL    HW1 1085   3.130   2.942   3.755 -0.1717  0.6082 -1.1711
  343SOL    HW2 1086   3.109   2.914   3.902 -2.2364  0.1713 -1.5193
  344SOL     OW 1087   3.254   2.111   3.160 -0.2540  0.6006  0.0931
  344SOL    HW1 1088   3.189   2.130   3.092 -1.0993  0.5030  0.8531
  344SOL    HW2 1089   3.336   2.101   3.113 -0.9700 -0.2590 -0.9983
  345SOL     OW 1090   0.115   0.357   4.313 -0.2112  0.4275 -0.1499
  345SOL    HW1 1091   0.076   0.282   4.357 -0.9343  0.6498 -0.3886
  345SOL    HW2 1092   0.141   0.324   4.227 -0.4092  0.4157 -0.2062
  346SOL     OW 1093   3.386   0.015   4.685 -0.9443 -0.1538  0.7437
  346SOL    HW1 1094   3.444   0.061   4.746  0.3334  0.0365 -0.5558
  346SOL    HW2 1095   3.436  -0.062   4.659 -0.6633  0.7117 -1.4578
  347SOL     OW 1096   4.057   4.934   2.019 -0.1373 -0.4395 -0.2687
  347SOL    HW1 1097   3.984   4.996   2.012  1.3580  1.3210 -1.0981
  347SOL    HW2 1098   4.103   4.959   2.099  0.8215 -0.0589 -0.9244
  348SOL     OW 1099   0.250   1.466   2.049 -0.0353 -0.1963  0.0874
  348SOL    HW1 1100   0.341   1.486   2.030 -0.4067 -0.7546 -2.7022
  348SOL    HW2 1101   0.252   1.382   2.095  0.8525  0.0504  0.5165
  349SOL     OW 1102   4.035   4.522   0.672 -0.0420  0.0680  0.0847
  349SOL    HW1 1103   3.982   4.600   0.655  0.1064  0.2471  0.4161
  349SOL    HW2 1104   4.078   4.541   0.756 -0.8771 -0.8430  0.7380
  350SOL     OW 1105   0.775   1.269   4.215  0.2825 -0.3165 -0.1644
  350SOL    HW1 1106   0.786   1.320   4.134 -1.4310  0.6295  0.1373
  350SOL    HW2 1107   0.698   1.214   4.197  0.9389 -1.4042  0.2309
  351SOL     OW 1108   2.319   2.787   1.773 -0.5308 -0.1624 -0.3584
  351SOL    HW1 1109   2.331   2.854   1.705 -0.8567 -1.2267 -1.4915
  351SOL    HW2 1110   2.387   2.722   1.754 -0.4258 -0.3271  0.5373
  352SOL     OW 1111   4.890   0.145   4.149 -0.0343 -0.2189 -0.1308
  352SOL    HW1 1112   4.858   0.197   4.223  0.4550  1.2574 -0.9231
  352SOL    HW2 1113   4.969   0.191   4.120  1.2907 -2.2338  0.0516
  353SOL     OW 1114   2.978   4.152   1.712  0.4008 -0.1308 -0.0653
  353SOL    HW1 1115   2.982   4.205   1.632 -1.8678  0.1354 -0.0760
  353SOL    HW2 1116   3.003   4.213   1.782  1.1816 -0.0274 -0.4224
  354SOL     OW 1117  -0.008   4.485   4.816  0.2874 -0.3754  0.3015
  354SOL    HW1 1118  -0.011   4.520   4.905 -0.1082  0.7912 -0.1654
  354SOL    HW2 1119   0.083   4.498   4.788  0.1279  0.3238  0.1103
  355SOL     OW 1120   4.561   0.708   1.455  0.4316 -0.2229  0.1881
  355SOL    HW1 1121   4.624   0.650   1.412 -0.6337 -1.3904  0.1375
  355SOL    HW2 1122   4.545   0.667   1.540  0.6925  0.7518  0.7101
  356SOL     OW 1123   3.761   2.654   2.711  0.2109 -0.6012 -0.6969
  356SOL    HW1 1124   3.719   2.722   2.764 -0.2559  0.1652 -2.0202
  356SOL    HW2 1125   3.763   2.577   2.769  0.6343  0.4626  0.7820
  357SOL     OW 1126   2.895   1.050   0.370 -0.5017 -0.7797 -0.4118
  357SOL    HW1 1127   2.880   1.106   0.446  2.9604  0.1640 -0.2494
  357SOL    HW2 1128   2.960   0.986   0.399 -3.6940 -4.6630 -0.8288
  358SOL     OW 1129   3.457   2.170   4.256 -0.4223 -0.2804 -0.0417
  358SOL    HW1 1130   3.438   2.262   4.237 -2.6034 -0.4407  0.9927
  358SOL    HW2 1131   3.521   2.172   4.327 -1.0842  0.4875  0.5562
  359SOL     OW 1132   2.325   1.964   3.691 -0.1076  0.0870 -0.1276
  359SOL    HW1 1133   2.373   1.907   3.631 -1.5054 -1.3276  0.0157
  359SOL    HW2 1134   2.368   1.951   3.775  0.1787 -0.0075 -0.2860
  360SOL     OW 1135   1.599   0.744   3.082  0.2407 -0.1173 -0.2859
  360SOL    HW1 1136   1.552   0.826   3.093  0.5218  0.1085 -0.7573
  360SOL    HW2 1137   1.631   0.746   2.992  0.0227 -0.8595 -0.3879
  361SOL     OW 1138   1.492   2.865   2.295  0.2166 -0.1456 -0.5401
  361SOL    HW1 1139   1.440   2.785   2.288 -0.8139  0.4366  0.1342
  361SOL    HW2 1140   1.567   2.840   2.348 -0.7896 -0.3555  0.8285
  362SOL     OW 1141   0.817   2.947   0.663  0.1449  0.1984  0.3049
  362SOL    HW1 1142   0.811   2.982   0.574 -0.0644  0.4349  0.4111
  362SOL    HW2 1143   0.747   2.991   0.712  1.1366  1.1284  0.9328
  363SOL     OW 1144   0.987   1.584   3.536 -0.0458  0.2999 -0.8642
  363SOL    HW1 1145   1.056   1.601   3.600 -0.3226  1.5032 -0.8657
  363SOL    HW2 1146   0.968   1.670   3.498 -1.0801 -0.1290 -1.3387
  364SOL     OW 1147   3.730   1.113   1.077  0.0565 -0.1417  0.7203
  364SOL    HW1 1148   3.720   1.112   1.172  2.3214  0.1348  1.0157
  364SOL    HW2 1149   3.822   1.137   1.062  0.4175 -2.3646 -1.4759
  365SOL     OW 1150   2.582   0.220   4.723  0.0013  0.2770 -0.7699
  365SOL    HW1 1151   2.661   0.273   4.711  1.8550 -2.2569 -0.3479
  365SOL    HW2 1152   2.580   0.161   4.648 -1.0339 -0.2871 -0.3333
  366SOL     OW 1153   1.191   1.864   1.319  0.1669 -0.3518 -0.1535
  366SOL    HW1 1154   1.263   1.894   1.375 -0.0589  0.3339 -0.2101
  366SOL    HW2 1155   1.149   1.794   1.369 -0.4272  0.6836  0.8464
  367SOL     OW 1156   1.282   2.557   4.586  0.1839 -0.0246  0.3704
  367SOL    HW1 1157   1.203   2.610   4.587 -0.5362 -1.0221  2.3155
  367SOL    HW2 1158   1.312   2.560   4.495 -1.3909  1.3621 -0.1584
  368SOL     OW 1159   4.871   0.670   0.437 -0.0037  0.2545 -0.0647
  368SOL    HW1 1160   4.923   0.751   0.439  0.0189  0.2679  2.6874
  368SOL    HW2 1161   4.931   0.603   0.470  0.0746 -1.0183 -2.6067
  369SOL     OW 1162   3.365   1.357   0.662  0.3245  0.1427 -0.1712
  369SOL    HW1 1163   3.366   1.270   0.702  0.0464  0.4655  0.5696
  369SOL    HW2 1164   3.294   1.353   0.598  0.8415 -0.4151 -0.7177
  370SOL     OW 1165   3.317   3.205   3.741 -0.3401  0.0656  0.3325
  370SOL    HW1 1166   3.392   3.193   3.799 -0.5974  1.8125  1.0688
  370SOL    HW2 1167   3.253   3.140   3.770  0.8182 -1.4297 -0.2843
  371SOL     OW 1168   0.489   4.200   4.512  0.3684  0.4481 -0.6298
  371SOL    HW1 1169   0.531   4.115   4.516 -1.5966 -0.5310  0.7090
  371SOL    HW2 1170   0.434   4.196   4.434 -2.3366 -0.9217  1.1838
  372SOL     OW 1171   1.320   0.718   4.829  0.0169  0.3740 -0.5736
  372SOL    HW1 1172   1.227   0.737   4.821 -0.4563 -1.3103  0.4280
  372SOL    HW2 1173   1.353   0.786   4.888 -1.1035 -0.3515  0.9540
  373SOL     OW 1174   4.182   0.918   3.505  0.4533 -0.0719  0.2864
  373SOL    HW1 1175   4.149   0.896   3.592  0.9153  0.3008  0.5592
  373SOL    HW2 1176   4.228   0.839   3.476 -0.2734 -0.4322  0.0934
  374SOL     OW 1177   0.254   2.106   4.627  0.1705  0.6760 -0.3739
  374SOL    HW1 1178   0.253   2.112   4.722 -0.9663  0.1942 -0.3365
  374SOL    HW2 1179   0.181   2.048   4.606  2.1693 -1.6127 -1.4125
  375SOL     OW 1180   4.681   2.412   3.836  0.3793  0.0442 -0.3253
  375SOL    HW1 1181   4.735   2.472   3.887  0.6585 -0.9487  0.5806
  375SOL    HW2 1182   4.652   2.464   3.760  0.7472  1.2568  0.3399
  376SOL     OW 1183   3.904   3.237   2.248  0.2138  0.5053 -0.3814
  376SOL    HW1 1184   3.991   3.250   2.285  0.4405  0.7652 -1.0039
  376SOL    HW2 1185   3.906   3.150   2.209  0.5119  0.9040 -1.2676
  377SOL     OW 1186   2.031   2.369   4.846  0.1211  0.4378 -0.1988
  377SOL    HW1 1187   1.988   2.304   4.791  0.7882 -0.2221  0.0467
  377SOL    HW2 1188   1.991   2.357   4.933  2.0703 -1.4731  0.5063
  378SOL     OW 1189   0.263   2.690   2.192  0.2504 -0.1903 -0.0038
  378SOL    HW1 1190   0.191   2.729   2.241  0.7460  0.3832  0.2726
  378SOL    HW2 1191   0.306   2.631   2.254 -0.1377 -0.7283 -0.2449
  379SOL     OW 1192   1.683   4.132   3.071 -0.2321 -0.1290  0.4376
  379SOL    HW1 1193   1.642   4.218   3.062  0.2289 -0.0448 -1.1842
  379SOL    HW2 1194   1.700   4.124   3.165  1.1931  2.2672  0.4835
  380SOL     OW 1195   4.920   0.423   1.973 -0.8930  0.2099 -0.3572
  380SOL    HW1 1196   4.854   0.387   2.032 -2.9553  3.3649 -0.5071
  380SOL    HW2 1197   4.994   0.444   2.030 -0.7047 -1.5720  0.1350
  381SOL     OW 1198   1.174   4.584   0.280  0.1250 -0.0403 -0.1996
  381SOL    HW1 1199   1.221   4.519   0.228 -2.0165 -1.7963 -0.0479
  381SOL    HW2 1200   1.226   4.593   0.360  1.9631  0.6438 -1.4034
  382SOL     OW 1201   0.053   2.630   2.603  0.1602  0.2842  0.1652
  382SOL    HW1 1202   0.013   2.548   2.633 -0.3208  0.7149  0.7274
  382SOL    HW2 1203   0.006   2.699   2.651  0.6835  0.8801 -0.1594
  383SOL     OW 1204   2.714   0.126   3.159  0.7184 -0.1103 -0.6805
  383SOL    HW1 1205   2.645   0.187   3.184  0.3923 -0.8194  0.2089
  383SOL    HW2 1206   2.668   0.051   3.121  0.9174 -0.8643  0.4941
  384SOL     OW 1207   4.437   1.034   4.287  0.0815 -0.0555 -0.0533
  384SOL    HW1 1208   4.477   0.956   4.325 -0.7422 -0.1497  0.6499
  384SOL    HW2 1209   4.343   1.017   4.290 -0.0878  0.7933 -0.2518
  385SOL     OW 1210   2.398   0.823   4.839  0.3755  0.3253 -0.0939
  385SOL    HW1 1211   2.411   0.881   4.915 -1.4781  1.0635 -0.3006
  385SOL    HW2 1212   2.433   0.739   4.868  1.9187  1.1787  0.6942
  386SOL     OW 1213   3.283   2.743   0.864  0.3747  0.1692  0.5161
  386SOL    HW1 1214   3.375   2.732   0.839 -0.0992 -0.0119 -1.2760
  386SOL    HW2 1215   3.251   2.653   0.876  0.0032  0.1498 -0.5634
  387SOL     OW 1216   2.603   0.072   4.495  0.1220  0.2548  0.0650
  387SOL    HW1 1217   2.521   0.102   4.456 -1.6711 -1.6546  2.0637
  387SOL    HW2 1218   2.607  -0.021   4.475  0.6201 -0.1525  1.8467
  388SOL     OW 1219   3.505   2.712   4.689 -0.5913  0.3202  0.5767
  388SOL    HW1 1220   3.517   2.806   4.705 -1.5275  0.3261  1.3782
  388SOL    HW2 1221   3.512   2.673   4.776  0.2534 -0.4185  0.1846
  389SOL     OW 1222   2.222   0.603   3.436  0.1028  0.3331 -0.1580
  389SOL    HW1 1223   2.180   0.629   3.517 -0.2220 -1.3709  0.2504
  389SOL    HW2 1224   2.150   0.579   3.377  0.4057 -1.3003  0.0891
  390SOL     OW 1225   2.968   1.562   1.468  0.2027  0.3754  0.1465
  390SOL    HW1 1226   3.040   1.619   1.492 -1.3925  3.2603 -1.3364
  390SOL    HW2 1227   2.948   1.513   1.548  1.4425  2.2033  1.6594
  391SOL     OW 1228   2.001   3.037   3.681 -0.2162  0.2556  0.0639
  391SOL    HW1 1229   2.040   3.117   3.646 -0.0461 -0.7431 -2.2012
  391SOL    HW2 1230   2.075   2.980   3.699 -0.4136  0.0174  0.1292
  392SOL     OW 1231   0.777   4.793   4.112 -0.0136 -0.0675 -0.6903
  392SOL    HW1 1232   0.774   4.887   4.092  0.2434  0.0827 -0.0455
  392SOL    HW2 1233   0.868   4.768   4.095 -0.2104 -0.3275 -1.3948
  393SOL     OW 1234   3.365   3.239   0.624  0.3186 -0.4746  0.2576
  393SOL    HW1 1235   3.384   3.322   0.667  0.4450 -0.1798 -0.3528
  393SOL    HW2 1236   3.428   3.235   0.551 -1.4555  0.2151 -1.4075
  394SOL     OW 1237   0.145   0.505   2.138 -0.7347  0.2314  0.0883
  394SOL    HW1 1238   0.235   0.516   2.167 -0.4011 -0.9747 -0.3945
  394SOL    HW2 1239   0.120   0.589   2.101  0.5971  0.2627 -0.8065
  395SOL     OW 1240   0.113   3.632   2.063  0.3539 -0.0027 -0.0234
  395SOL    HW1 1241   0.043   3.619   2.127  0.4474 -0.5145 -0.0274
  395SOL    HW2 1242   0.111   3.726   2.045  0.3322  0.1521  0.7365
  396SOL     OW 1243   0.248   4.006   1.191 -1.1752  0.2761 -0.3750
  396SOL    HW1 1244   0.281   4.030   1.104 -1.0268  2.1470  0.1493
  396SOL    HW2 1245   0.166   4.055   1.200 -0.9646  0.4480  0.6938
  397SOL     OW 1246   4.626   0.272   1.035 -0.4323  0.1077 -0.2228
  397SOL    HW1 1247   4.677   0.339   0.989 -2.1610  0.1808 -2.1641
  397SOL    HW2 1248   4.582   0.223   0.966 -3.3249  0.3246  1.3043
  398SOL     OW 1249   0.510   1.039   3.482 -0.3368  0.0162 -0.3628
  398SOL    HW1 1250   0.563   1.027   3.404 -0.4346  0.3773 -0.4872
  398SOL    HW2 1251   0.490   0.950   3.512  1.0287 -0.1360  0.1771
  399SOL     OW 1252   0.461   1.488   4.759  0.2793  0.4494 -0.2915
  399SOL    HW1 1253   0.428   1.571   4.724  0.7094  1.0166  0.5985
  399SOL    HW2 1254   0.425   1.484   4.847 -0.5409 -0.8030 -0.6631
  400SOL     OW 1255   4.770   4.059   3.862 -0.2692 -0.2722  0.1344
  400SOL    HW1 1256   4.735   3.987   3.809 -0.3745 -0.0509 -0.0989
  400SOL    HW2 1257   4.700   4.124   3.863 -0.2081 -0.2114  0.4212
  401SOL     OW 1258   3.537   0.802   1.604  0.3928 -0.3402 -0.0671
  401SOL    HW1 1259   3.522   0.792   1.698  0.4601 -0.9350 -0.1139
  401SOL    HW2 1260   3.450   0.795   1.564  0.4853 -1.2651 -0.1357
  402SOL     OW 1261   4.151   1.596   1.413 -0.2879  0.2461 -0.4136
  402SOL    HW1 1262   4.231   1.611   1.462 -1.1016  1.3201  0.6490
  402SOL    HW2 1263   4.110   1.683   1.406 -1.6835 -0.3694 -0.3162
  403SOL     OW 1264   0.431   4.643   3.693  0.3804  0.6485 -0.0456
  403SOL    HW1 1265   0.502   4.606   3.745 -0.6591 -1.5187 -0.0616
  403SOL    HW2 1266   0.358   4.652   3.754 -0.6202 -1.2175 -0.8642
  404SOL     OW 1267   2.555   4.763   4.527 -0.5011 -0.1335 -0.0482
  404SOL    HW1 1268   2.624   4.715   4.573  0.5543 -0.9443 -2.3128
  404SOL    HW2 1269   2.507   4.695   4.479 -1.6750  0.6491 -0.0270
  405SOL     OW 1270   1.094   4.837   1.596 -0.1669 -0.0230  0.3498
  405SOL    HW1 1271   1.098   4.743   1.577 -1.2538 -0.4461  1.9773
  405SOL    HW2 1272   1.050   4.875   1.520 -0.9839 -1.0506  0.2830
  406SOL     OW 1273   4.692   2.624   0.329  0.0171 -0.3149 -1.1834
  406SOL    HW1 1274   4.606   2.623   0.287 -0.2304  0.0859 -0.6905
  406SOL    HW2 1275   4.724   2.713   0.319 -0.2961 -0.0475 -0.0446
  407SOL     OW 1276   3.361   0.213   3.544  0.4590  0.2397 -0.2900
  407SOL    HW1 1277   3.368   0.267   3.623 -0.7652  0.6053 -0.4055
  407SOL    HW2 1278   3.338   0.126   3.577  3.0762 -0.4419 -0.0569
  408SOL     OW 1279   1.665   0.195   1.329  0.1360 -0.1182 -0.5140
  408SOL    HW1 1280   1.715   0.205   1.248  0.4930  1.3641 -0.1474
  408SOL    HW2 1281   1.676   0.279   1.374 -0.1221 -0.8815  1.0327
  409SOL     OW 1282   0.237   3.834   2.335 -0.0056 -0.0981 -0.4650
  409SOL    HW1 1283   0.330   3.851   2.319  0.2086  0.3571  1.0580
  409SOL    HW2 1284   0.215   3.891   2.409 -1.4116 -0.4583 -0.5814
  410SOL     OW 1285   2.404   3.909   2.458  0.4191 -0.1555 -0.2257
  410SOL    HW1 1286   2.485   3.949   2.489  1.2394 -1.5104 -0.5384
  410SOL    HW2 1287   2.368   3.865   2.535  0.5708 -0.4772 -0.3344
  411SOL     OW 1288   1.015   4.305   0.923 -0.2790 -0.0006  0.0145
  411SOL    HW1 1289   1.093   4.263   0.886 -0.9726  0.6874 -2.4371
  411SOL    HW2 1290   0.947   4.239   0.915 -0.9449  0.8496 -2.1571
  412SOL     OW 1291   1.855   2.665   3.267  0.0862 -0.4977 -0.2230
  412SOL    HW1 1292   1.918   2.610   3.313  0.8622  0.5084 -0.0588
  412SOL    HW2 1293   1.893   2.678   3.180  1.1432  1.7239  0.4923
  413SOL     OW 1294   3.380   4.209   1.036  0.1421 -0.3354  0.1180
  413SOL    HW1 1295   3.345   4.128   1.074 -0.4346  0.0564  0.4376
  413SOL    HW2 1296   3.426   4.181   0.957 -1.0777 -0.8524 -0.4333
  414SOL     OW 1297   1.410   2.766   3.506 -0.4317 -0.4046  0.2784
  414SOL    HW1 1298   1.422   2.851   3.548 -1.1265  0.1492 -0.5936
  414SOL    HW2 1299   1.348   2.719   3.562 -1.2404  0.2691 -0.0309
  415SOL     OW 1300   0.842   2.806   1.972 -0.4176  0.0283  0.4327
  415SOL    HW1 1301   0.749   2.795   1.992 -0.2607  0.6291  1.5763
  415SOL    HW2 1302   0.887   2.776   2.051  0.3051  0.8900  0.3646
  416SOL     OW 1303   4.420   3.989   3.706 -0.0222  0.1875 -0.3974
  416SOL    HW1 1304   4.362   3.980   3.630  0.2612  1.0442 -0.7337
  416SOL    HW2 1305   4.464   3.905   3.712 -1.1957 -0.4406 -0.2105
  417SOL     OW 1306   4.432   4.100   4.335  0.0843 -0.0852 -0.3781
  417SOL    HW1 1307   4.341   4.123   4.352  0.0976 -0.4973  0.2771
  417SOL    HW2 1308   4.436   4.090   4.240 -0.0930  1.8242 -0.6245
  418SOL     OW 1309   3.551   0.621   0.661 -0.2273 -0.4585  0.2224
  418SOL    HW1 1310   3.631   0.611   0.713  1.0555  2.6118 -0.9158
  418SOL    HW2 1311   3.569   0.575   0.580  0.0808 -0.4404  0.2769
  419SOL     OW 1312   3.337   3.143   4.123  0.0166  0.3329 -0.3770
  419SOL    HW1 1313   3.323   3.156   4.217  1.4446  0.1354 -0.1138
  419SOL    HW2 1314   3.295   3.059   4.104  1.9348 -0.9534  0.6801
  420SOL     OW 1315   1.068   2.899   2.256  0.5107 -0.4920  0.5935
  420SOL    HW1 1316   1.067   2.895   2.351  1.9265  0.9186  0.7137
  420SOL    HW2 1317   1.040   2.812   2.228 -0.0592 -0.8937  2.2816
  421SOL     OW 1318   0.817   0.981   2.850  0.6576 -0.3914 -0.5175
  421SOL    HW1 1319   0.735   0.944   2.885 -0.9329  2.8189 -0.4803
  421SOL    HW2 1320   0.799   0.995   2.757  0.8041  1.1684 -0.3277
  422SOL     OW 1321   1.902   3.422   2.020  0.0589  0.5565  0.3094
  422SOL    HW1 1322   1.971   3.365   2.055  0.2355  0.3358 -0.3851
  422SOL    HW2 1323   1.910   3.503   2.070 -0.3649 -0.1130  1.4921
  423SOL     OW 1324   4.934   4.397   3.423 -0.0642 -0.0345  0.0551
  423SOL    HW1 1325   5.021   4.358   3.438 -0.2436  0.0240  1.3269
  423SOL    HW2 1326   4.896   4.404   3.510 -0.3586  2.2883 -0.2141
  424SOL     OW 1327   2.928   4.514   4.079  0.9391 -0.2984  0.4271
  424SOL    HW1 1328   2.968   4.569   4.013  1.9185 -0.1596  1.1078
  424SOL    HW2 1329   2.871   4.572   4.128  1.2825 -0.0812  0.5749
  425SOL     OW 1330   4.602   1.337   2.785  0.0414 -0.1215  0.0917
  425SOL    HW1 1331   4.600   1.425   2.824 -1.1429 -0.2974  0.4653
  425SOL    HW2 1332   4.660   1.346   2.709  2.2297  0.2754  1.7133
  426SOL     OW 1333   1.109   3.295   1.758  0.0169  0.7096  0.2020
  426SOL    HW1 1334   1.052   3.370   1.778  2.0352  1.2148  5.4989
  426SOL    HW2 1335   1.197   3.331   1.761  0.9382 -1.4193  0.0081
  427SOL     OW 1336   4.036   1.245   2.814  0.2273 -0.3125 -0.0260
  427SOL    HW1 1337   4.106   1.310   2.823  0.0049  0.1727 -1.4933
  427SOL    HW2 1338   3.992   1.269   2.733 -0.2235 -1.9610 -0.2978
  428SOL     OW 1339   2.797   4.938   2.390  0.6056  0.5445 -0.0659
  428SOL    HW1 1340   2.835   4.934   2.302 -0.1220  0.9764 -0.4073
  428SOL    HW2 1341   2.725   4.876   2.388 -0.0109  1.2487 -0.0815
  429SOL     OW 1342   0.638   2.587   4.623  0.1878 -0.7194  0.2405
  429SOL    HW1 1343   0.635   2.501   4.581 -0.7969 -0.0457 -1.1394
  429SOL    HW2 1344   0.596   2.646   4.561  2.0127  1.0327  0.5754
  430SOL     OW 1345   4.485   3.932   4.874 -0.0672  0.3632 -0.1844
  430SOL    HW1 1346   4.435   3.851   4.888 -1.3683  1.2264  0.3264
  430SOL    HW2 1347   4.560   3.904   4.821  0.2766 -1.4313  1.1271
  431SOL     OW 1348   3.035   0.412   1.632 -0.2782 -0.0518 -0.4710
  431SOL    HW1 1349   3.120   0.450   1.610  0.3147 -0.8731  0.3004
  431SOL    HW2 1350   3.057   0.336   1.687 -1.5174 -0.1397 -0.0743
  432SOL     OW 1351   3.323   3.133   4.434  0.3909  0.3807  0.0212
  432SOL    HW1 1352   3.356   3.208   4.483  0.3267 -0.2178  0.9948
  432SOL    HW2 1353   3.244   3.106   4.481  0.6029 -0.5094 -0.1285
  433SOL     OW 1354   1.822   4.156   1.502  0.0901 -0.2712  0.5349
  433SOL    HW1 1355   1.837   4.200   1.419  1.7890 -0.3292  0.7676
  433SOL    HW2 1356   1.745   4.102   1.488  0.5296 -0.5077 -1.0890
  434SOL     OW 1357   0.109   2.227   3.538  0.2046 -0.3242 -0.2808
  434SOL    HW1 1358   0.166   2.237   3.614 -1.0767 -1.4984  0.8924
  434SOL    HW2 1359   0.025   2.198   3.574 -0.3696 -1.2084 -2.1639
  435SOL     OW 1360   0.677   0.778   0.199  0.0513  0.5872 -0.2325
  435SOL    HW1 1361   0.645   0.759   0.111  3.1282 -1.2488 -1.0762
  435SOL    HW2 1362   0.732   0.855   0.189  2.1311 -0.8534 -0.4325
  436SOL     OW 1363   4.035   2.977   3.781  0.0559 -0.2243  0.1590
  436SOL    HW1 1364   4.085   3.014   3.708  0.8423  1.4758  1.4748
  436SOL    HW2 1365   4.095   2.916   3.823 -0.0786 -0.5167 -0.0686
  437SOL     OW 1366   2.345   4.223   4.652 -0.5390 -0.4069  0.6303
  437SOL    HW1 1367   2.264   4.211   4.603  0.1825 -0.4318 -0.5935
  437SOL    HW2 1368   2.385   4.301   4.614  1.3798 -1.9733 -0.7949
  438SOL     OW 1369   2.902   3.245   0.345 -0.3228  0.6676 -0.5519
  438SOL    HW1 1370   2.977   3.304   0.332  1.5903 -1.6131 -0.5391
  438SOL    HW2 1371   2.927   3.192   0.421 -2.3146  0.3334 -0.0851
  439SOL     OW 1372   2.522   3.406   1.591 -0.1900  0.1336  0.0482
  439SOL    HW1 1373   2.492   3.374   1.676 -1.4009 -0.0321 -0.4179
  439SOL    HW2 1374   2.441   3.431   1.545  0.5177  1.2069 -0.6618
  440SOL     OW 1375   0.824   0.818   3.916 -0.0715  0.2471  0.2690
  440SOL    HW1 1376   0.784   0.769   3.988 -0.4673 -1.7912 -1.2520
  440SOL    HW2 1377   0.782   0.904   3.921 -2.0824 -0.7023  0.8733
  441SOL     OW 1378   3.077   0.800   0.746 -0.1389 -0.0183 -0.3116
  441SOL    HW1 1379   3.162   0.756   0.755 -0.3631 -0.8140 -1.8112
  441SOL    HW2 1380   3.039   0.798   0.834  1.5529  0.7322  0.4883
  442SOL     OW 1381   4.659   0.192   2.837  0.2588  0.4236 -0.5151
  442SOL    HW1 1382   4.659   0.258   2.768 -0.4710  2.7542  1.5655
  442SOL    HW2 1383   4.746   0.197   2.876  0.0228  0.5712  0.0066
  443SOL     OW 1384   2.254   4.464   2.010  0.1437  0.5775 -0.4323
  443SOL    HW1 1385   2.245   4.482   1.916  1.0071  3.5867 -0.0246
  443SOL    HW2 1386   2.315   4.531   2.042 -0.1554 -0.3397  2.3054
  444SOL     OW 1387   2.963   4.090   2.440 -0.1042  0.5320  0.2832
  444SOL    HW1 1388   2.888   4.150   2.432 -1.3861 -0.9790  0.3456
  444SOL    HW2 1389   2.943   4.038   2.518  1.6073  0.8328  0.9638
  445SOL     OW 1390   3.248   1.927   2.873 -0.8092 -0.1637  0.3497
  445SOL    HW1 1391   3.327   1.921   2.820 -2.2788  0.7395 -2.0958
  445SOL    HW2 1392   3.219   1.836   2.885 -0.4921 -0.3818 -0.4966
  446SOL     OW 1393   0.213   2.675   2.999  0.4192  0.0901 -0.5016
  446SOL    HW1 1394   0.189   2.647   2.911  0.5136  0.5122 -0.6671
  446SOL    HW2 1395   0.236   2.594   3.045  0.7071 -0.0980 -0.9713
  447SOL     OW 1396   4.667   0.988   2.967 -0.4066  0.5964 -0.7613
  447SOL    HW1 1397   4.706   0.919   3.022  1.4773  2.7843  0.8469
  447SOL    HW2 1398   4.576   0.992   2.996 -0.2110 -0.2986  0.0554
  448SOL     OW 1399   2.421   1.668   2.025  0.4146  0.0501 -0.4283
  448SOL    HW1 1400   2.327   1.657   2.035  0.4994 -0.2786  0.0513
  448SOL    HW2 1401   2.446   1.733   2.090  0.3741  0.8997 -1.2397
  449SOL     OW 1402   1.186   3.008   0.566  0.3041  0.1097  0.9207
  449SOL    HW1 1403   1.153   3.098   0.564 -2.0524 -0.6650 -0.3980
  449SOL    HW2 1404   1.216   2.994   0.656  0.4042  2.0894  1.2272
  450SOL     OW 1405   2.946   2.164   2.257  0.0043 -0.4407 -0.0499
  450SOL    HW1 1406   2.863   2.194   2.294 -0.0734 -0.1302 -0.4625
  450SOL    HW2 1407   3.013   2.215   2.303 -0.1348  0.5167 -0.8507
  451SOL     OW 1408   4.200   2.446   0.939  0.1548 -0.5547  0.3379
  451SOL    HW1 1409   4.276   2.442   0.882 -0.1948  0.3134 -0.1990
  451SOL    HW2 1410   4.125   2.440   0.880 -0.2114  0.4972  0.6835
  452SOL     OW 1411   0.154   1.306   0.439 -0.2037 -0.4053 -0.3792
  452SOL    HW1 1412   0.102   1.243   0.489  0.2783 -0.4005  0.1340
  452SOL    HW2 1413   0.092   1.376   0.417 -1.0396 -1.5479 -1.9062
  453SOL     OW 1414   4.568   4.105   2.511  0.3355  0.4404  0.5345
  453SOL    HW1 1415   4.506   4.155   2.458 -1.5811 -0.6102  1.6878
  453SOL    HW2 1416   4.568   4.148   2.596  2.1774  1.1527  0.2236
  454SOL     OW 1417   1.517   1.011   2.336  0.3380 -0.0796  0.5854
  454SOL    HW1 1418   1.604   0.981   2.309  0.7133  1.0974  0.4305
  454SOL    HW2 1419   1.525   1.106   2.342 -1.6463  0.3719 -2.0673
  455SOL     OW 1420   0.410   1.964   0.447 -0.1163  0.6176 -0.3731
  455SOL    HW1 1421   0.416   2.044   0.499  0.4669  1.0599 -1.1161
  455SOL    HW2 1422   0.435   1.990   0.359  1.7132 -0.7027 -0.3124
  456SOL     OW 1423   3.767   0.913   0.314  0.1374  0.1184 -0.1756
  456SOL    HW1 1424   3.761   0.952   0.227 -3.8241  0.8280  0.2357
  456SOL    HW2 1425   3.839   0.961   0.356  0.4145  1.6145 -2.1827
  457SOL     OW 1426   2.880   0.046   4.472 -0.1230 -0.2920  0.3127
  457SOL    HW1 1427   2.891   0.139   4.455 -0.6947  0.0853  1.8392
  457SOL    HW2 1428   2.793   0.038   4.510  0.0842 -1.3792  0.6017
  458SOL     OW 1429   2.686   1.621   3.902 -0.0724  0.6580  0.0861
  458SOL    HW1 1430   2.592   1.613   3.885 -0.0065  1.4079 -0.7236
  458SOL    HW2 1431   2.720   1.532   3.895 -0.4112  0.6354 -1.7127
  459SOL     OW 1432   3.110   3.337   3.938  0.1134 -0.2526  0.0473
  459SOL    HW1 1433   3.024   3.320   3.978 -0.4213  1.2315 -0.4100
  459SOL    HW2 1434   3.165   3.363   4.012  0.0385 -0.7439  0.2779
  460SOL     OW 1435   2.357   4.178   1.159 -0.4813 -0.2018 -0.1096
  460SOL    HW1 1436   2.352   4.083   1.149 -0.0848 -0.0638 -2.1001
  460SOL    HW2 1437   2.280   4.211   1.112  0.4896  0.5184 -1.2567
  461SOL     OW 1438   0.935   3.810   4.143 -0.0928  0.8028 -0.2380
  461SOL    HW1 1439   0.902   3.820   4.054 -1.5282  2.0357  0.3878
  461SOL    HW2 1440   1.002   3.742   4.137  0.5834  1.5927 -2.4316
  462SOL     OW 1441  -0.001   3.309   3.596 -0.9155  0.3636  0.0859
  462SOL    HW1 1442   0.026   3.274   3.681  1.2444 -0.8516 -1.0057
  462SOL    HW2 1443   0.018   3.403   3.602 -1.4089  0.4053  1.1492
  463SOL     OW 1444   3.768   3.302   0.102 -0.3397  0.1659  0.2430
  463SOL    HW1 1445   3.676   3.325   0.103 -0.3232  0.2440 -0.0418
  463SOL    HW2 1446   3.782   3.256   0.185 -1.2712 -2.3986 -0.9257
  464SOL     OW 1447   4.948   0.243   1.745  0.1822 -0.3923  0.1984
  464SOL    HW1 1448   4.918   0.293   1.820  1.5643 -1.5192  1.5753
  464SOL    HW2 1449   5.043   0.240   1.755  0.2333 -2.2690 -0.4539
  465SOL     OW 1450   1.291   3.438   0.380  0.1059  0.1550 -0.2765
  465SOL    HW1 1451   1.377   3.407   0.351  0.1628  0.5910 -0.5956
  465SOL    HW2 1452   1.294   3.533   0.368 -0.1090  0.2741  0.5607
  466SOL     OW 1453   3.381   1.762   0.142 -0.2897  0.2767 -0.7452
  466SOL    HW1 1454   3.378   1.718   0.227 -1.4583  0.6292 -0.5763
  466SOL    HW2 1455   3.422   1.699   0.083  2.1129  0.6639  0.4185
  467SOL     OW 1456   0.582   1.382   0.924  0.4874  1.3625 -0.2600
  467SOL    HW1 1457   0.658   1.359   0.978  1.4871  0.7736 -1.8381
  467SOL    HW2 1458   0.620   1.425   0.847 -0.7464  0.6990 -1.2753
  468SOL     OW 1459   1.121   3.445   4.612  0.1881 -0.1248 -0.3786
  468SOL    HW1 1460   1.167   3.459   4.695 -0.1523 -2.1351  0.2176
  468SOL    HW2 1461   1.139   3.353   4.591 -0.6271  0.0567 -1.9869
  469SOL     OW 1462   0.112   3.091   0.481  0.5713  0.2994 -0.1019
  469SOL    HW1 1463   0.149   3.169   0.439  0.0601  0.8093  0.3682
  469SOL    HW2 1464   0.115   3.023   0.414  1.6168  0.5468 -0.3251
  470SOL     OW 1465   2.894   1.449   0.449 -0.3365 -0.8270 -0.0357
  470SOL    HW1 1466   2.866   1.539   0.430 -0.0638 -0.6910  0.1927
  470SOL    HW2 1467   2.918   1.413   0.363  1.6978  0.0617  0.1010
  471SOL     OW 1468   3.291   3.891   3.019 -0.0854 -0.0316 -0.3173
  471SOL    HW1 1469   3.302   3.933   3.104  0.4063 -1.9691  0.6260
  471SOL    HW2 1470   3.196   3.885   3.007 -0.1681  1.2369 -0.4555
  472SOL     OW 1471   3.082   1.126   2.043  0.6675  0.5422 -0.5646
  472SOL    HW1 1472   3.143   1.075   1.990 -0.6122 -1.6194 -0.0535
  472SOL    HW2 1473   3.000   1.077   2.040  0.8188 -0.5568  4.4353
  473SOL     OW 1474   2.506   2.180   0.071  0.1011 -0.6246  0.1131
  473SOL    HW1 1475   2.551   2.250   0.023  0.0971 -1.0310 -0.5029
  473SOL    HW2 1476   2.420   2.216   0.091 -0.2327 -0.7570 -1.0001
  474SOL     OW 1477   4.818   1.755   3.867  0.1536  0.2985  0.5978
  474SOL    HW1 1478   4.864   1.770   3.785 -0.0687  0.3015  0.4750
  474SOL    HW2 1479   4.884   1.715   3.924 -0.0683 -0.9827 -0.0202
  475SOL     OW 1480   2.168   2.189   1.840  0.1085 -0.5208 -1.0090
  475SOL    HW1 1481   2.134   2.121   1.782  0.0773 -0.3062 -1.2462
  475SOL    HW2 1482   2.160   2.270   1.789  0.3885 -0.3777 -0.8319
  476SOL     OW 1483   2.060   2.930   2.829 -0.3243  0.1206  0.0736
  476SOL    HW1 1484   2.065   3.021   2.801  1.2653 -0.8767 -3.4618
  476SOL    HW2 1485   1.994   2.891   2.772 -0.8195 -1.0582  1.3877
  477SOL     OW 1486   1.645   3.376   2.139 -0.6158  0.4022  0.4079
  477SOL    HW1 1487   1.734   3.387   2.106 -0.5980  0.6250  0.5254
  477SOL    HW2 1488   1.624   3.284   2.123 -1.9654  1.2149 -3.5659
  478SOL     OW 1489   3.305   4.275   4.233  0.0864 -0.3230 -0.0529
  478SOL    HW1 1490   3.229   4.297   4.179  1.5460  0.7623 -1.7661
  478SOL    HW2 1491   3.312   4.180   4.229  1.2533 -0.1983 -3.4590
  479SOL     OW 1492   0.425   4.417   2.107  0.0679  0.1882 -0.2950
  479SOL    HW1 1493   0.518   4.421   2.085 -0.0626  0.9186 -0.7798
  479SOL    HW2 1494   0.403   4.507   2.133 -0.5227  0.0437 -0.2836
  480SOL     OW 1495   1.635   2.245   4.300  0.0797 -0.7992 -0.1717
  480SOL    HW1 1496   1.607   2.244   4.391  1.6995  1.2922  0.4402
  480SOL    HW2 1497   1.584   2.177   4.258 -1.0018 -1.5531  2.2107
  481SOL     OW 1498   1.164   0.878   4.169  0.2616  0.5593 -0.1318
  481SOL    HW1 1499   1.240   0.925   4.204 -0.6719  1.6227  0.5298
  481SOL    HW2 1500   1.105   0.947   4.138 -0.2526 -0.2658 -1.0547
  482SOL     OW 1501   1.947   4.027   3.368  0.0037 -0.1276 -0.2585
  482SOL    HW1 1502   1.954   4.043   3.274 -0.6933 -0.7890 -0.4403
  482SOL    HW2 1503   1.943   3.932   3.376  2.1402 -0.1854  0.6202
  483SOL     OW 1504   0.633   2.199   3.467  0.2559 -0.1537 -0.0293
  483SOL    HW1 1505   0.626   2.113   3.424  3.1506 -0.1147 -0.8292
  483SOL    HW2 1506   0.646   2.261   3.395  1.0027  0.5198  0.6587
  484SOL     OW 1507   1.789   1.029   4.202 -0.1889 -0.0050  0.2265
  484SOL    HW1 1508   1.821   1.004   4.289 -1.6590 -1.0346  0.4965
  484SOL    HW2 1509   1.805   1.124   4.197  0.3233 -0.0096  1.4329
  485SOL     OW 1510   2.167   3.137   1.762 -0.1279  0.4718  0.1918
  485SOL    HW1 1511   2.107   3.099   1.827  0.4702  1.0968  1.1336
  485SOL    HW2 1512   2.196   3.219   1.802 -1.8564  2.2809 -2.0233
  486SOL     OW 1513   4.948   2.596   2.125 -0.3993 -0.5970 -0.2202
  486SOL    HW1 1514   4.854   2.582   2.109 -0.7076 -0.6727  1.4739
  486SOL    HW2 1515   4.951   2.657   2.199  0.9146  0.9491 -1.4674
  487SOL     OW 1516   1.357   2.728   1.824  0.2991  0.6153  0.0260
  487SOL    HW1 1517   1.282   2.783   1.847  1.5393  1.2561  2.9120
  487SOL    HW2 1518   1.318   2.648   1.787 -1.7172  1.4507  0.2527
  488SOL     OW 1519   3.096   3.945   2.741 -0.5934  0.4355 -0.4173
  488SOL    HW1 1520   3.092   3.905   2.827  0.3736  0.6371 -0.2669
  488SOL    HW2 1521   3.167   4.009   2.747  0.4230 -0.5059 -1.7466
  489SOL     OW 1522   1.824   4.855   1.707  0.3945  0.4621 -0.6770
  489SOL    HW1 1523   1.763   4.885   1.774 -0.9965 -0.3640 -1.5221
  489SOL    HW2 1524   1.889   4.925   1.700 -0.8914  1.7317 -0.2817
  490SOL     OW 1525   3.440   3.811   0.422 -0.0442  0.0550 -0.1896
  490SOL    HW1 1526   3.383   3.759   0.366 -0.9140  0.7212  0.0340
  490SOL    HW2 1527   3.380   3.848   0.488  0.3403  2.1155 -0.9264
  491SOL     OW 1528   4.319   1.773   2.327 -0.0628  0.1537 -0.3176
  491SOL    HW1 1529   4.315   1.746   2.419  0.6315  0.6564 -0.1359
  491SOL    HW2 1530   4.308   1.868   2.328 -0.3712  0.1270 -0.7818
  492SOL     OW 1531   2.233   1.548   0.063 -0.3310  0.1919  0.2162
  492SOL    HW1 1532   2.142   1.566   0.039 -1.4949 -2.5179  2.0908
  492SOL    HW2 1533   2.285   1.597  -0.001 -3.0805  1.5314 -1.1597
  493SOL     OW 1534   0.530   0.123   2.354  0.7556  0.2224 -0.0944
  493SOL    HW1 1535   0.506   0.195   2.413  0.8292 -1.0223  1.5239
  493SOL    HW2 1536   0.446   0.087   2.325  0.7097 -0.0070  0.3227
  494SOL     OW 1537   2.476   1.967   1.859 -0.6358  0.0445 -0.4175
  494SOL    HW1 1538   2.504   2.051   1.822 -2.6034  1.1046  0.3621
  494SOL    HW2 1539   2.412   1.933   1.796 -0.7895 -0.2502 -0.1055
  495SOL     OW 1540   0.854   2.209   3.665  0.8294 -0.0831  0.0543
  495SOL    HW1 1541   0.877   2.298   3.641 -0.5084  0.8869  2.0699
  495SOL    HW2 1542   0.780   2.187   3.608  1.3428 -0.0366 -0.6395
  496SOL     OW 1543   2.487   2.739   4.376  0.6705  0.1852  0.0715
  496SOL    HW1 1544   2.560   2.692   4.416 -0.3388 -1.3295  0.2433
  496SOL    HW2 1545   2.409   2.692   4.407 -0.2731  0.5320 -1.6453
  497SOL     OW 1546   0.954   2.783   4.803 -0.3248 -0.2457  0.1253
  497SOL    HW1 1547   0.861   2.807   4.812 -0.7013 -1.0302 -1.3442
  497SOL    HW2 1548   0.954   2.688   4.813  0.5256 -0.1260  1.4406
  498SOL     OW 1549   0.811   4.634   4.886  0.1665  0.0226  0.0668
  498SOL    HW1 1550   0.889   4.667   4.931  0.8825 -1.4507 -0.0303
  498SOL    HW2 1551   0.832   4.644   4.793 -1.2153  2.8457 -0.0644
  499SOL     OW 1552   0.421   1.092   1.307 -0.2738  0.7172 -0.4758
  499SOL    HW1 1553   0.475   1.156   1.259 -0.3287 -0.0230 -1.5509
  499SOL    HW2 1554   0.459   1.090   1.395  1.7353 -0.0693 -1.2992
  500SOL     OW 1555   4.786   3.587   3.521 -0.3381  0.1179 -0.0802
  500SOL    HW1 1556   4.863   3.616   3.570  0.4279 -0.1302 -1.0938
  500SOL    HW2 1557   4.755   3.665   3.476  1.0183 -0.3191 -1.8742
  501SOL     OW 1558   1.346   3.835   3.011 -0.2091  0.2982 -0.0187
  501SOL    HW1 1559   1.349   3.911   3.070 -0.6232  0.8257 -0.6516
  501SOL    HW2 1560   1.434   3.830   2.974 -0.2456  0.6400 -0.1651
  502SOL     OW 1561   4.131   0.767   4.432  0.7431  0.3481 -0.1475
  502SOL    HW1 1562   4.037   0.776   4.448  0.5094 -1.1665 -0.4719
  502SOL    HW2 1563   4.168   0.851   4.457 -0.8423  1.3698 -1.0439
  503SOL     OW 1564   4.764   4.614   2.401 -0.2192 -0.2359 -0.0933
  503SOL    HW1 1565   4.708   4.622   2.324 -0.3238 -0.8108 -0.0882
  503SOL    HW2 1566   4.766   4.519   2.419 -0.8037 -0.0556  1.0489
  504SOL     OW 1567   1.630   1.246   0.768 -0.3513  0.3133  0.0120
  504SOL    HW1 1568   1.713   1.285   0.740 -0.7458  0.3902 -1.1273
  504SOL    HW2 1569   1.564   1.289   0.713 -1.3549  1.3647  1.9350
  505SOL     OW 1570   0.469   1.496   2.704 -0.2796  0.1988 -0.3136
  505SOL    HW1 1571   0.470   1.425   2.768  2.9853  1.1933  0.9701
  505SOL    HW2 1572   0.446   1.454   2.621 -1.6906 -1.6866  0.9564
  506SOL     OW 1573   2.864   2.409   1.978  0.6166  0.1110  0.2465
  506SOL    HW1 1574   2.908   2.339   1.929  1.3049 -0.1669  1.2313
  506SOL    HW2 1575   2.935   2.454   2.024  0.1048  1.0874  0.1035
  507SOL     OW 1576   4.611   3.244   0.117  0.3391  0.1643 -0.1876
  507SOL    HW1 1577   4.622   3.261   0.211  0.6693 -0.6224 -0.0734
  507SOL    HW2 1578   4.554   3.314   0.087 -1.7806 -0.8980  1.0839
  508SOL     OW 1579   4.051   1.402   3.455  0.0626  0.5686 -0.2519
  508SOL    HW1 1580   3.990   1.356   3.511  0.4790  1.3390  0.8726
  508SOL    HW2 1581   4.049   1.354   3.372 -1.0419 -0.2054  0.2056
  509SOL     OW 1582   4.259   4.161   3.876  0.1755  0.4455  0.0820
  509SOL    HW1 1583   4.254   4.065   3.868  0.4436  0.1331  2.6904
  509SOL    HW2 1584   4.210   4.194   3.802 -0.3105 -1.7327 -0.6468
  510SOL     OW 1585   0.044   4.186   1.144  0.0648 -0.5334  0.2222
  510SOL    HW1 1586  -0.043   4.175   1.181  0.0180  1.5745  0.8910
  510SOL    HW2 1587   0.060   4.281   1.148  1.0647 -0.4476 -2.9158
  511SOL     OW 1588   4.466   4.317   4.960  0.0533 -0.3149  0.0327
  511SOL    HW1 1589   4.392   4.256   4.972 -0.4800  0.2787 -0.1726
  511SOL    HW2 1590   4.520   4.276   4.893  0.8758 -1.6431  1.4391
  512SOL     OW 1591   4.441   4.577   0.666  0.0654 -0.0291  0.2917
  512SOL    HW1 1592   4.537   4.585   0.666  0.2417 -1.2257 -2.2385
  512SOL    HW2 1593   4.411   4.650   0.721  2.3946  0.7990  0.5841
  513SOL     OW 1594   0.951   4.970   0.032 -0.1035  0.2974 -0.2334
  513SOL    HW1 1595   0.978   4.950   0.121 -0.7993  0.9895  0.1407
  513SOL    HW2 1596   0.979   4.894  -0.019  0.9044  0.1933  0.4457
  514SOL     OW 1597   4.531   3.149   1.276  0.2241  0.0281  0.1521
  514SOL    HW1 1598   4.586   3.139   1.355  1.1759  3.1848  0.0416
  514SOL    HW2 1599   4.583   3.110   1.206  0.3603 -0.8513  0.7257
  515SOL     OW 1600   3.353   0.142   2.426 -0.4083  0.1039 -0.3972
  515SOL    HW1 1601   3.443   0.142   2.394 -0.7690 -0.1873 -1.4385
  515SOL    HW2 1602   3.337   0.052   2.454  0.3375  0.6321  1.9281
  516SOL     OW 1603   0.481   3.586   4.130  0.5379 -0.8642 -0.6976
  516SOL    HW1 1604   0.453   3.544   4.212 -1.2913  0.5532 -0.5377
  516SOL    HW2 1605   0.571   3.613   4.148 -0.7674  2.4203  2.2621
  517SOL     OW 1606   1.279   2.287   0.696  0.4734  0.4093  0.1250
  517SOL    HW1 1607   1.203   2.323   0.650  0.6963  0.0737 -0.5292
  517SOL    HW2 1608   1.332   2.364   0.718 -1.0512  0.8616  2.5075
  518SOL     OW 1609   2.613   1.613   0.679  0.7878 -0.0916 -0.2536
  518SOL    HW1 1610   2.601   1.563   0.599  1.5219 -0.4720 -0.1298
  518SOL    HW2 1611   2.687   1.671   0.661  0.5413  0.2857 -0.0742
  519SOL     OW 1612   3.953   1.165   0.061 -0.5227  0.1515 -0.8361
  519SOL    HW1 1613   3.964   1.206  -0.025  0.7624  1.0826 -0.2678
  519SOL    HW2 1614   4.034   1.186   0.108 -0.8196 -1.1153  0.2929
  520SOL     OW 1615   4.236   2.109   3.293 -0.1854 -0.1324  0.2286
  520SOL    HW1 1616   4.149   2.104   3.335 -0.2810 -0.7848 -0.0278
  520SOL    HW2 1617   4.283   2.033   3.328 -0.4366 -0.9816 -1.2119
  521SOL     OW 1618   2.033   1.447   1.694 -0.2205  0.2992 -0.6359
  521SOL    HW1 1619   2.043   1.432   1.600  0.8560 -4.2231 -0.0492
  521SOL    HW2 1620   1.945   1.415   1.715  0.2249 -0.5116  0.0884
  522SOL     OW 1621   2.370   1.957   0.532  0.2878 -0.2019  0.0861
  522SOL    HW1 1622   2.324   1.921   0.608  1.7188 -2.1875  0.1000
  522SOL    HW2 1623   2.409   2.038   0.565 -3.3021  1.7919 -0.0324
  523SOL     OW 1624   4.705   1.448   1.440  0.2300  0.1376  0.6644
  523SOL    HW1 1625   4.621   1.407   1.418  1.2269 -0.4055 -2.7958
  523SOL    HW2 1626   4.728   1.411   1.525 -2.5078 -0.5277  1.2023
  524SOL     OW 1627   2.130   0.319   2.262  0.4252  0.0614 -0.1306
  524SOL    HW1 1628   2.068   0.282   2.325 -0.1608  1.5714  0.2239
  524SOL    HW2 1629   2.175   0.388   2.310  1.4104 -0.0889 -0.7998
  525SOL     OW 1630   3.900   4.748   0.592 -0.1226  0.6249  0.7478
  525SOL    HW1 1631   3.952   4.820   0.626 -2.0269  1.5266  1.8729
  525SOL    HW2 1632   3.875   4.775   0.504  0.9272  0.3461  0.3416
  526SOL     OW 1633   2.916   1.868   1.945  0.1618  0.4819  0.1321
  526SOL    HW1 1634   2.941   1.777   1.963 -0.8062  0.4636  1.6362
  526SOL    HW2 1635   2.859   1.863   1.869 -1.2624 -0.4360  1.2047
  527SOL     OW 1636   1.556   0.189   2.412  1.0556 -0.6287  0.1454
  527SOL    HW1 1637   1.544   0.281   2.437 -0.7380 -0.4638 -1.1262
  527SOL    HW2 1638   1.575   0.144   2.494  0.8321  0.7042  0.9566
  528SOL     OW 1639   3.316   4.365   2.887 -0.0528 -0.0314  0.5604
  528SOL    HW1 1640   3.275   4.412   2.814 -0.4392 -1.4072 -0.1390
  528SOL    HW2 1641   3.386   4.423   2.916  1.9878 -0.5777 -2.7529
  529SOL     OW 1642   3.140   1.995   3.680  0.0061 -0.8287 -0.3357
  529SOL    HW1 1643   3.157   2.065   3.616  0.5498 -1.7135 -1.1899
  529SOL    HW2 1644   3.086   2.036   3.747 -0.4663  0.1695 -1.3018
  530SOL     OW 1645   1.872   4.351   4.396  0.1531  0.0645  0.1510
  530SOL    HW1 1646   1.958   4.392   4.404 -0.3308  0.9748  0.7865
  530SOL    HW2 1647   1.883   4.286   4.325  0.8276  1.5449 -1.1568
  531SOL     OW 1648   2.989   2.397   0.039  0.1618 -0.3371 -0.6840
  531SOL    HW1 1649   2.998   2.311  -0.003  0.4954 -0.8916  0.4524
  531SOL    HW2 1650   2.896   2.405   0.058 -0.0852  0.1808 -2.0136
  532SOL     OW 1651   0.507   0.922   2.416 -0.0034 -0.1595  0.5853
  532SOL    HW1 1652   0.420   0.899   2.382 -0.5538  1.6324  0.6592
  532SOL    HW2 1653   0.568   0.886   2.352 -0.8330 -0.7406  0.0966
  533SOL     OW 1654   2.138   2.402   1.186  0.3138 -0.2301  0.0984
  533SOL    HW1 1655   2.154   2.365   1.100  2.1839  0.3760  0.1403
  533SOL    HW2 1656   2.184   2.344   1.247  0.5047  0.3217  0.4934
  534SOL     OW 1657   1.950   2.354   3.825  0.1984 -0.8479  0.2404
  534SOL    HW1 1658   2.020   2.365   3.889  0.1647 -0.2176  0.1827
  534SOL    HW2 1659   1.916   2.443   3.813  1.0456 -0.7166 -1.5916
  535SOL     OW 1660   2.182   1.173   1.828  0.8157  0.6122 -0.2865
  535SOL    HW1 1661   2.270   1.135   1.825  1.2549  1.6491 -0.9631
  535SOL    HW2 1662   2.195   1.259   1.869  0.0300  0.5485  0.1064
  536SOL     OW 1663   3.115   2.345   0.302 -0.3365 -0.4691  0.1386
  536SOL    HW1 1664   3.170   2.271   0.275  1.7219  1.0533 -0.0909
  536SOL    HW2 1665   3.089   2.386   0.219 -1.3976 -0.8404  0.2689
  537SOL     OW 1666   0.577   3.890   0.802  0.1927 -0.7397  0.3815
  537SOL    HW1 1667   0.638   3.823   0.773  2.0656  0.0127  2.3223
  537SOL    HW2 1668   0.498   3.841   0.825  0.2838 -1.8274 -1.4160
  538SOL     OW 1669   2.823   3.500   0.789 -0.1681 -0.1125 -0.3188
  538SOL    HW1 1670   2.815   3.586   0.829 -0.2644  0.2827 -1.1767
  538SOL    HW2 1671   2.733   3.475   0.769 -0.1796 -0.6070  0.3140
  539SOL     OW 1672   0.749   1.545   3.401 -0.5667 -0.0427 -0.0998
  539SOL    HW1 1673   0.779   1.610   3.337  0.0612  1.8160  1.9526
  539SOL    HW2 1674   0.809   1.554   3.474 -1.6315 -1.6504  1.0390
  540SOL     OW 1675   1.447   0.778   1.986  0.6222 -0.2902 -0.1778
  540SOL    HW1 1676   1.380   0.716   1.955 -0.8137  0.2014  1.7658
  540SOL    HW2 1677   1.398   0.859   2.002  1.5935 -0.0314  1.6682
  541SOL     OW 1678   0.476   0.290   1.720 -0.2790 -0.1794 -0.0414
  541SOL    HW1 1679   0.555   0.312   1.671 -0.4678 -1.2518 -0.8879
  541SOL    HW2 1680   0.485   0.196   1.739 -0.5417  0.0568  1.3995
  542SOL     OW 1681   4.656   3.414   4.085  0.0792  0.0369 -0.0148
  542SOL    HW1 1682   4.570   3.423   4.125 -0.3520 -1.8813 -0.4322
  542SOL    HW2 1683   4.638   3.401   3.992  0.8337 -0.0314 -0.1628
  543SOL     OW 1684   3.029   3.043   1.777  0.2727 -0.0236 -0.2302
  543SOL    HW1 1685   3.006   2.951   1.784  3.0681 -0.6877  1.8576
  543SOL    HW2 1686   3.101   3.055   1.838 -0.0022  3.5981 -0.3766
  544SOL     OW 1687   3.184   0.908   3.589  0.1068 -0.3448 -0.8560
  544SOL    HW1 1688   3.193   0.818   3.560  0.2732  0.1506 -2.4177
  544SOL    HW2 1689   3.269   0.929   3.628  0.4447 -0.5363 -1.4781
  545SOL     OW 1690   4.619   4.642   2.178 -0.1137 -0.4315 -0.4321
  545SOL    HW1 1691   4.583   4.576   2.119  0.5242 -0.2807 -0.9991
  545SOL    HW2 1692   4.552   4.711   2.181 -0.6608 -0.9671 -0.0488
  546SOL     OW 1693   4.742   3.829   3.370 -0.2068  0.5282 -0.2629
  546SOL    HW1 1694   4.687   3.908   3.378  0.5346  0.9176  1.1995
  546SOL    HW2 1695   4.709   3.786   3.291 -0.8714  2.1129 -0.9013
  547SOL     OW 1696   3.637   1.911   3.214  0.0115 -0.4287  0.1418
  547SOL    HW1 1697   3.636   1.888   3.121 -0.5288  0.6886 -0.1614
  547SOL    HW2 1698   3.565   1.974   3.223 -0.1992 -0.8177  1.4046
  548SOL     OW 1699   1.213   1.669   4.970 -0.1704 -0.3016  0.8772
  548SOL    HW1 1700   1.274   1.596   4.954 -1.8334 -1.7591  0.9368
  548SOL    HW2 1701   1.163   1.676   4.888 -0.1875  0.6280  0.9606
  549SOL     OW 1702   4.312   1.402   4.245  0.2330  0.0597 -0.3631
  549SOL    HW1 1703   4.406   1.414   4.261  0.5446 -1.1062 -1.1589
  549SOL    HW2 1704   4.295   1.448   4.163  0.5828 -1.4396 -1.3187
  550SOL     OW 1705   1.433   0.284   3.086  0.0493 -0.1851 -0.1401
  550SOL    HW1 1706   1.439   0.364   3.034 -0.1079  0.5937  1.0087
  550SOL    HW2 1707   1.434   0.314   3.177  1.1845 -1.5729  0.3368
  551SOL     OW 1708   0.608   4.930   0.130  0.0479 -0.0912  0.0030
  551SOL    HW1 1709   0.611   4.904   0.223  1.0379 -2.3982 -0.5902
  551SOL    HW2 1710   0.669   4.870   0.087 -0.6817  0.6681 -2.2294
  552SOL     OW 1711   4.237   2.332   3.704 -0.1433 -0.7049  0.1411
  552SOL    HW1 1712   4.155   2.323   3.655  0.0099 -2.6580  0.1546
  552SOL    HW2 1713   4.233   2.419   3.741 -1.0713  0.1925 -1.8897
  553SOL     OW 1714   2.072   0.074   4.617 -0.0345  0.1037 -0.0608
  553SOL    HW1 1715   2.048   0.002   4.557  1.3846  0.5789 -1.2711
  553SOL    HW2 1716   2.167   0.065   4.627 -0.1869  0.2874  1.8571
  554SOL     OW 1717   4.578   3.594   1.373  0.0579  0.2961 -0.6172
  554SOL    HW1 1718   4.599   3.502   1.360  0.4466  0.2122  0.5345
  554SOL    HW2 1719   4.551   3.625   1.286  0.0904 -0.8491 -1.0476
  555SOL     OW 1720   4.018   2.135   3.589  0.2837 -0.7454 -0.3331
  555SOL    HW1 1721   4.072   2.062   3.561 -0.0920 -1.9502  1.8687
  555SOL    HW2 1722   3.935   2.122   3.544  0.5883 -1.0208 -0.8254
  556SOL     OW 1723   3.798   4.082   0.418  0.2619  0.2597 -0.6081
  556SOL    HW1 1724   3.867   4.147   0.427 -0.3150  0.9793 -1.1731
  556SOL    HW2 1725   3.747   4.088   0.499  0.9233 -0.3728 -0.1298
  557SOL     OW 1726   2.073   4.151   4.575 -0.1936  0.4065  0.9228
  557SOL    HW1 1727   1.988   4.191   4.593 -1.1341 -0.6336 -0.9130
  557SOL    HW2 1728   2.055   4.084   4.509  2.0158 -0.0631  0.7044
  558SOL     OW 1729   2.981   4.300   0.232  0.1071  0.0921  0.2969
  558SOL    HW1 1730   2.902   4.331   0.186 -0.6361 -2.2200 -0.1278
  558SOL    HW2 1731   3.023   4.240   0.170  0.8147 -0.6550  1.4507
  559SOL     OW 1732   0.928   1.694   4.041  0.5257  0.1644  0.2561
  559SOL    HW1 1733   0.982   1.766   4.008 -0.0246 -1.5544 -5.3735
  559SOL    HW2 1734   0.970   1.615   4.007 -3.1701 -1.5457 -0.8563
  560SOL     OW 1735   1.668   3.736   1.993 -1.0248  0.5404  0.0545
  560SOL    HW1 1736   1.628   3.804   2.047 -1.4276 -0.4480  1.0430
  560SOL    HW2 1737   1.734   3.696   2.050 -0.2568  0.5992 -0.7706
  561SOL     OW 1738   3.863   1.706   4.346  0.1201 -0.1608  0.0367
  561SOL    HW1 1739   3.775   1.691   4.312 -0.0285 -0.3956  0.5159
  561SOL    HW2 1740   3.912   1.627   4.325  0.2914  0.0673 -0.4478
  562SOL     OW 1741   4.102   3.772   3.575 -0.3398 -0.0982 -0.6198
  562SOL    HW1 1742   4.116   3.743   3.665 -0.0938  0.1908 -0.5623
  562SOL    HW2 1743   4.115   3.867   3.578 -0.1068 -0.1138 -0.9993
  563SOL     OW 1744   0.308   0.300   0.586  0.2220 -0.5233  0.1504
  563SOL    HW1 1745   0.250   0.307   0.662 -1.4566 -0.1402 -1.0975
  563SOL    HW2 1746   0.396   0.309   0.621 -0.4252 -1.6659  2.2086
  564SOL     OW 1747   4.600   1.264   3.744  0.9093  0.0126  0.4410
  564SOL    HW1 1748   4.512   1.262   3.708  0.7093  0.9551  0.8398
  564SOL    HW2 1749   4.629   1.173   3.745  0.5633 -0.1413 -1.2041
  565SOL     OW 1750   0.582   3.431   3.101 -0.7250 -0.0409 -0.2495
  565SOL    HW1 1751   0.549   3.493   3.166 -0.6309 -0.5603  0.2993
  565SOL    HW2 1752   0.526   3.354   3.111 -0.0866 -0.4949 -0.1050
  566SOL     OW 1753   4.199   3.253   4.640  0.2735  0.6307 -0.1386
  566SOL    HW1 1754   4.114   3.215   4.661  1.6868 -2.8354 -0.1036
  566SOL    HW2 1755   4.230   3.291   4.722  0.2928 -1.4348  0.8625
  567SOL     OW 1756   1.124   2.358   4.054  0.1600  0.3289  0.3166
  567SOL    HW1 1757   1.139   2.299   4.128  0.7565  1.8840  1.4844
  567SOL    HW2 1758   1.098   2.300   3.982  1.6099 -1.4433  1.1418
  568SOL     OW 1759   3.977   4.556   2.408  0.2520  0.1687  0.5109
  568SOL    HW1 1760   3.972   4.463   2.387 -1.6207  0.2423  0.4658
  568SOL    HW2 1761   4.061   4.584   2.371  1.1330 -1.5936  1.0277
  569SOL     OW 1762   1.692   4.305  -0.023 -0.3796 -0.3565 -0.2243
  569SOL    HW1 1763   1.736   4.255   0.045 -1.1042 -2.0685 -0.9163
  569SOL    HW2 1764   1.606   4.325   0.014  0.1034  0.8851  0.2515
  570SOL     OW 1765   4.493   0.866   0.081 -0.1399 -0.2118  0.0923
  570SOL    HW1 1766   4.458   0.778   0.098 -1.5710  0.6553  1.9980
  570SOL    HW2 1767   4.539   0.890   0.161 -1.0966  1.3458  0.2161
  571SOL     OW 1768   3.902   3.749   1.288  0.6036  0.1680 -0.5616
  571SOL    HW1 1769   3.983   3.732   1.336 -0.1981 -0.8697  0.5050
  571SOL    HW2 1770   3.859   3.819   1.338  0.4412  0.1028 -0.6096
  572SOL     OW 1771   0.474   0.385   1.347  0.0128 -0.0320 -0.1773
  572SOL    HW1 1772   0.396   0.440   1.351 -0.1566 -0.2862  0.0231
  572SOL    HW2 1773   0.543   0.444   1.316  0.5599  1.1347  2.8604
  573SOL     OW 1774   1.744   0.694   0.097 -0.2757 -0.7716  0.0587
  573SOL    HW1 1775   1.802   0.761   0.134 -1.9755  1.4744 -1.0888
  573SOL    HW2 1776   1.664   0.701   0.149  0.2060 -3.5530  1.3694
  574SOL     OW 1777   1.372   1.980   1.485 -0.2047  0.2660 -0.2554
  574SOL    HW1 1778   1.380   2.075   1.477  0.0313  0.1170 -2.1497
  574SOL    HW2 1779   1.439   1.955   1.549  0.6457  1.2385 -0.7394
  575SOL     OW 1780   2.189   2.926   3.065 -0.0100  0.1376 -0.1002
  575SOL    HW1 1781   2.119   2.926   3.000 -0.4989 -0.0260  0.4150
  575SOL    HW2 1782   2.150   2.967   3.142  0.9690  1.5294 -0.3202
  576SOL     OW 1783   0.437   3.935   2.523  0.2956 -0.2477 -0.7627
  576SOL    HW1 1784   0.431   3.843   2.548 -1.6420 -0.5036 -2.0211
  576SOL    HW2 1785   0.430   3.983   2.606 -0.7610 -1.1946 -0.2796
  577SOL     OW 1786   0.891   1.008   2.061  0.3559  0.0444  0.1302
  577SOL    HW1 1787   0.912   1.074   2.127 -2.4676 -0.2186  1.4295
  577SOL    HW2 1788   0.971   0.998   2.010  1.9258  1.9360  2.0794
  578SOL     OW 1789   1.674   3.045   3.948 -0.0841 -0.5994 -0.3929
  578SOL    HW1 1790   1.709   3.130   3.921  0.4642 -0.6980 -0.0171
  578SOL    HW2 1791   1.657   3.055   4.042  2.4510 -1.6662  0.2869
  579SOL     OW 1792   3.041   2.321   1.079  0.3521  0.6179 -0.0391
  579SOL    HW1 1793   3.001   2.303   1.164  0.8683  1.5032  0.4109
  579SOL    HW2 1794   2.986   2.274   1.016  1.6050 -2.4786  1.0086
  580SOL     OW 1795   3.289   1.219   2.654  0.0217 -0.2460 -0.0016
  580SOL    HW1 1796   3.231   1.143   2.664 -0.0586  0.0454  2.6446
  580SOL    HW2 1797   3.237   1.293   2.686  0.3893  0.8193 -1.7528
  581SOL     OW 1798   4.603   0.667   2.016 -0.6690 -0.1225 -0.2145
  581SOL    HW1 1799   4.611   0.738   1.953 -0.1789 -1.8830 -2.2524
  581SOL    HW2 1800   4.509   0.654   2.028 -0.7615  0.2429 -0.5526
  582SOL     OW 1801   4.828   1.264   3.888  0.0208  0.2862 -0.8640
  582SOL    HW1 1802   4.803   1.319   3.961 -0.3191  0.4047 -1.0693
  582SOL    HW2 1803   4.752   1.265   3.829  0.7074  1.1090 -1.7675
  583SOL     OW 1804   3.396   3.739   3.614  0.9800  0.2448 -0.0207
  583SOL    HW1 1805   3.362   3.677   3.678  1.2520  0.4083  0.2876
  583SOL    HW2 1806   3.464   3.691   3.567  0.5178  0.0021 -0.4564
  584SOL     OW 1807   1.061   3.656   0.302  0.0662 -0.3539  0.1996
  584SOL    HW1 1808   1.153   3.684   0.299  0.3236 -1.2051 -0.0620
  584SOL    HW2 1809   1.056   3.598   0.378 -0.4661  0.3944  0.7448
  585SOL     OW 1810   2.804   1.697   3.367  0.3925 -0.0151  0.4462
  585SOL    HW1 1811   2.726   1.677   3.419  0.0603  0.2731  0.0704
  585SOL    HW2 1812   2.849   1.766   3.416 -0.2615  0.7194  0.0464
  586SOL     OW 1813   3.958   3.132   4.679  0.0788  0.2266 -0.8878
  586SOL    HW1 1814   3.955   3.054   4.625 -0.2972  0.4082 -1.1271
  586SOL    HW2 1815   3.870   3.168   4.677  0.2845  0.7477 -0.9106
  587SOL     OW 1816   0.948   2.843   0.179 -0.3436 -0.6708 -0.4413
  587SOL    HW1 1817   0.913   2.895   0.251  0.8057 -0.8957  0.3157
  587SOL    HW2 1818   0.892   2.766   0.174 -0.4259 -0.6590  0.2316
  588SOL     OW 1819   1.283   3.130   3.340 -0.1936 -0.0599  0.1098
  588SOL    HW1 1820   1.188   3.122   3.332 -0.2169 -0.1320  0.4438
  588SOL    HW2 1821   1.298   3.139   3.434  0.0614  0.8108 -0.0045
  589SOL     OW 1822   4.294   2.037   2.331  0.2040 -0.2304 -0.2460
  589SOL    HW1 1823   4.240   2.069   2.259  0.1164  0.5909  0.1690
  589SOL    HW2 1824   4.374   2.091   2.326  1.3375 -1.8969 -1.2944
  590SOL     OW 1825   4.553   1.575   2.498 -0.9591  0.2047  0.1566
  590SOL    HW1 1826   4.636   1.557   2.542  0.5632 -1.6740 -3.0590
  590SOL    HW2 1827   4.570   1.655   2.447 -1.3432  0.2106  0.0382
  591SOL     OW 1828   2.296   3.460   1.423 -0.0008  0.5665 -0.2170
  591SOL    HW1 1829   2.319   3.549   1.396 -0.2039  0.1592 -1.8425
  591SOL    HW2 1830   2.206   3.468   1.456 -0.5867  0.7325 -1.7817
  592SOL     OW 1831   1.217   3.198   0.946 -0.1399 -0.0505  0.4096
  592SOL    HW1 1832   1.299   3.206   0.995 -0.3769 -0.9648  0.9955
  592SOL    HW2 1833   1.198   3.286   0.916  1.1285  0.1528  0.1557
  593SOL     OW 1834   2.812   2.960   1.508  0.0429 -0.1124 -0.0379
  593SOL    HW1 1835   2.725   2.965   1.548 -0.0378  0.2144 -0.2581
  593SOL    HW2 1836   2.866   2.919   1.576 -0.4726 -1.1437 -0.2218
  594SOL     OW 1837   4.538   2.694   1.138 -0.5924 -0.2630 -0.4074
  594SOL    HW1 1838   4.592   2.757   1.186 -1.2912  0.0457 -0.0058
  594SOL    HW2 1839   4.518   2.739   1.055  0.5931 -0.7863 -1.0045
  595SOL     OW 1840   2.092   1.040   0.078  0.2263  0.1194 -0.7269
  595SOL    HW1 1841   2.181   1.050   0.044  0.2200  1.9760 -0.3191
  595SOL    HW2 1842   2.051   1.126   0.064 -1.1108 -0.3303  0.1817
  596SOL     OW 1843   4.887   1.935   2.457  0.4006  0.2692  0.0538
  596SOL    HW1 1844   4.820   1.992   2.495 -0.3815 -1.0669  0.7247
  596SOL    HW2 1845   4.914   1.981   2.377 -0.8501  1.1500  0.1085
  597SOL     OW 1846   1.790   4.456   3.214 -0.3058  0.3995  0.3929
  597SOL    HW1 1847   1.837   4.498   3.287  0.4506 -0.3088  0.3290
  597SOL    HW2 1848   1.739   4.387   3.256  0.8159 -0.5903  0.1770
  598SOL     OW 1849   1.142   0.980   3.257  0.2835 -0.5026  0.4391
  598SOL    HW1 1850   1.144   0.933   3.340  1.2805 -0.0531  0.6821
  598SOL    HW2 1851   1.233   1.005   3.241  0.4046 -1.9858 -1.6079
  599SOL     OW 1852   1.388   3.235   4.609 -0.6985 -0.1509 -0.0678
  599SOL    HW1 1853   1.350   3.229   4.697 -2.9471 -0.5955 -0.9895
  599SOL    HW2 1854   1.427   3.149   4.594  0.7095  0.2902  0.8784
  600SOL     OW 1855   2.587   3.468   2.188 -0.2956 -0.0631 -0.2382
  600SOL    HW1 1856   2.660   3.529   2.200 -0.2140  0.3090 -2.2690
  600SOL    HW2 1857   2.525   3.493   2.256 -0.3609  2.5097 -1.1182
  601SOL     OW 1858   0.387   3.677   2.581  0.5783 -0.0749  0.0015
  601SOL    HW1 1859   0.389   3.657   2.674  0.1701 -0.2119 -0.0163
  601SOL    HW2 1860   0.300   3.649   2.552  1.5140 -2.3375 -0.9041
  602SOL     OW 1861   3.753   4.643   4.666 -0.0357  0.4012  0.0925
  602SOL    HW1 1862   3.807   4.639   4.587 -0.7112  1.9037 -0.4942
  602SOL    HW2 1863   3.808   4.604   4.735  0.3827 -1.3654 -1.1875
  603SOL     OW 1864   3.706   2.232   4.426 -0.1982  0.0815 -0.2458
  603SOL    HW1 1865   3.798   2.256   4.433 -0.5006  0.9511  1.1017
  603SOL    HW2 1866   3.706   2.139   4.407  0.9579  0.1198 -0.4770
  604SOL     OW 1867   3.352   1.824   2.103  0.0679  0.0383  0.0283
  604SOL    HW1 1868   3.264   1.859   2.103 -0.2332 -0.6855  0.7239
  604SOL    HW2 1869   3.351   1.756   2.170  0.9724 -0.4210 -0.3998
  605SOL     OW 1870   2.696   3.396   4.812 -0.7175  0.0534  0.1769
  605SOL    HW1 1871   2.725   3.310   4.842  2.1275  1.2040  1.0151
  605SOL    HW2 1872   2.694   3.389   4.716  0.3690 -0.7262  0.1952
  606SOL     OW 1873   3.593   3.479   0.638  0.1479 -0.0436  0.1495
  606SOL    HW1 1874   3.511   3.527   0.647 -0.3331 -0.5491 -1.2861
  606SOL    HW2 1875   3.602   3.431   0.720  0.0906  1.6182  1.1759
  607SOL     OW 1876   0.442   2.859   2.991  0.3263 -0.0211  0.4721
  607SOL    HW1 1877   0.361   2.812   3.012 -0.8883  1.3241 -0.9522
  607SOL    HW2 1878   0.508   2.790   2.981 -1.1507 -1.3566 -0.5563
  608SOL     OW 1879   0.626   2.122   4.045  0.2473  0.7972  0.3047
  608SOL    HW1 1880   0.541   2.092   4.013 -0.1552 -0.0489  2.0397
  608SOL    HW2 1881   0.690   2.075   3.991 -0.3466 -3.4041  2.8137
  609SOL     OW 1882  -0.014   3.524   4.836  0.1288 -0.1245 -0.0378
  609SOL    HW1 1883  -0.039   3.525   4.743 -0.7823 -0.2098  0.1945
  609SOL    HW2 1884   0.075   3.559   4.837  0.5458 -1.0840 -1.0523
  610SOL     OW 1885   2.501   3.290   0.026  0.2749  0.3375 -0.2611
  610SOL    HW1 1886   2.532   3.368  -0.021 -1.6646  2.0771  1.1546
  610SOL    HW2 1887   2.521   3.308   0.118 -1.8998  0.1169  0.3262
  611SOL     OW 1888   2.036   3.444   1.182  0.0437 -0.0833 -0.0241
  611SOL    HW1 1889   2.010   3.528   1.218 -0.5355 -1.2704  2.5693
  611SOL    HW2 1890   1.954   3.394   1.177  0.0810 -0.0443 -3.1354
  612SOL     OW 1891   2.234   0.795   4.267 -0.2488 -0.2642  0.2169
  612SOL    HW1 1892   2.144   0.799   4.302 -0.3989 -1.5365  0.0011
  612SOL    HW2 1893   2.260   0.704   4.276  0.3570 -0.2835 -1.3877
  613SOL     OW 1894   4.454   0.157   0.811 -0.0004  0.2136 -0.1274
  613SOL    HW1 1895   4.427   0.067   0.828  1.2428 -0.4465 -1.4249
  613SOL    HW2 1896   4.412   0.179   0.728 -0.0405  0.7203  0.0232
  614SOL     OW 1897   4.317   1.767   2.620 -0.1116  0.4366  0.5764
  614SOL    HW1 1898   4.397   1.742   2.666 -0.6693  0.4258  1.5733
  614SOL    HW2 1899   4.273   1.684   2.601 -0.0352  0.4569  0.3131
  615SOL     OW 1900   4.366   3.681   4.834  0.3373 -0.0404 -0.5788
  615SOL    HW1 1901   4.294   3.666   4.896 -0.1713 -2.2752 -1.6002
  615SOL    HW2 1902   4.326   3.667   4.748  1.4881  1.0405 -1.3193
  616SOL     OW 1903   4.187   3.585   4.603 -0.2365 -0.0769  0.0152
  616SOL    HW1 1904   4.102   3.544   4.612 -1.2019  1.9643  0.8908
  616SOL    HW2 1905   4.184   3.631   4.519 -0.6888  1.3978  0.8051
  617SOL     OW 1906   0.149   2.142   3.822  0.6276 -0.0725 -0.3836
  617SOL    HW1 1907   0.135   2.091   3.902  0.3948  0.3511 -0.1561
  617SOL    HW2 1908   0.095   2.220   3.833 -0.3207 -0.5662 -1.4715
  618SOL     OW 1909   3.508   1.173   1.928 -0.6731 -0.1549  0.2651
  618SOL    HW1 1910   3.574   1.138   1.868 -0.5055  0.4738  0.0838
  618SOL    HW2 1911   3.472   1.249   1.883  0.4564  1.2012  1.5479
  619SOL     OW 1912   0.778   3.820   1.035  0.0797 -0.5619 -0.0122
  619SOL    HW1 1913   0.758   3.843   1.126  0.3028  0.8895 -0.3024
  619SOL    HW2 1914   0.730   3.739   1.020 -2.3308  0.6752  0.5381
  620SOL     OW 1915   4.581   0.080   4.553  0.7543  0.1508 -0.0228
  620SOL    HW1 1916   4.496   0.069   4.510  0.0518 -2.3888  1.7854
  620SOL    HW2 1917   4.638   0.016   4.510  0.7844 -0.5206  0.9945
  621SOL     OW 1918   3.799   1.761   2.600  0.0125  0.4447 -0.4402
  621SOL    HW1 1919   3.742   1.742   2.525  0.1798  2.1853 -1.0736
  621SOL    HW2 1920   3.872   1.809   2.562  1.7264 -1.3550  0.4268
  622SOL     OW 1921   4.766   4.848   4.482  0.3435 -0.2932  0.0683
  622SOL    HW1 1922   4.809   4.859   4.397  1.6007  0.2507  0.7522
  622SOL    HW2 1923   4.710   4.771   4.471 -0.6259  0.6148 -1.6852
  623SOL     OW 1924   1.256   4.105   0.849 -0.3055  0.0827  0.1518
  623SOL    HW1 1925   1.209   4.097   0.932 -3.7092  2.0690 -1.3726
  623SOL    HW2 1926   1.334   4.155   0.871 -0.1701 -0.9782  2.3987
  624SOL     OW 1927   4.281   3.769   1.129 -0.0785 -0.6814 -0.0152
  624SOL    HW1 1928   4.207   3.722   1.167 -1.2378  0.4368 -0.7984
  624SOL    HW2 1929   4.263   3.861   1.147  1.0804 -0.3755 -0.3146
  625SOL     OW 1930   1.211   0.525   2.121 -0.3484  0.4396  0.0191
  625SOL    HW1 1931   1.150   0.542   2.050 -1.4196  0.6692  0.9636
  625SOL    HW2 1932   1.244   0.437   2.104 -1.6733 -0.0753 -0.0069
  626SOL     OW 1933   4.938   2.380   2.676 -0.2376  0.8694  0.1728
  626SOL    HW1 1934   4.976   2.381   2.764 -2.3936  0.4061  1.1820
  626SOL    HW2 1935   4.843   2.384   2.691 -0.7617 -1.0929 -2.0620
  627SOL     OW 1936   3.417   0.611   0.338 -0.3368 -0.0171  0.3896
  627SOL    HW1 1937   3.394   0.690   0.287  0.8451  0.5149  0.6658
  627SOL    HW2 1938   3.408   0.638   0.429  3.1518  0.8232  0.5874
  628SOL     OW 1939   1.192   3.933   3.948 -0.5264 -0.2003  0.4994
  628SOL    HW1 1940   1.219   3.970   4.032 -0.4612 -0.1332  0.4490
  628SOL    HW2 1941   1.147   4.005   3.904  1.8982  0.6739 -0.7158
  629SOL     OW 1942   3.578   4.526   0.174  0.7053  0.1260  0.2093
  629SOL    HW1 1943   3.567   4.437   0.207  2.4968 -0.0806  0.3620
  629SOL    HW2 1944   3.517   4.532   0.100  2.0211 -1.9879 -1.1765
  630SOL     OW 1945   0.088   1.400   1.012 -0.1997 -0.2552 -0.2598
  630SOL    HW1 1946   0.047   1.455   1.078  1.0890 -1.2221  1.4459
  630SOL    HW2 1947   0.177   1.435   1.004 -0.0250 -0.7895 -0.7327
  631SOL     OW 1948   2.059   3.414   2.728 -0.1967  0.1599  0.3909
  631SOL    HW1 1949   2.066   3.319   2.718  0.4982  0.2505 -0.0478
  631SOL    HW2 1950   1.973   3.436   2.693  0.2634 -0.1246 -0.9436
  632SOL     OW 1951   0.931   0.171   1.668  0.0307 -0.0562  0.2370
  632SOL    HW1 1952   1.023   0.188   1.648  0.1123 -1.2756 -0.5477
  632SOL    HW2 1953   0.889   0.159   1.583 -0.6678 -0.3997  0.6144
  633SOL     OW 1954   0.983   3.902   0.587 -0.0401 -0.1741  0.0930
  633SOL    HW1 1955   1.004   3.961   0.659 -2.2442 -1.6987  2.1213
  633SOL    HW2 1956   1.057   3.841   0.584  0.1433  0.0005  0.9441
  634SOL     OW 1957   1.496   1.207   1.646  0.8076  0.1055 -0.5136
  634SOL    HW1 1958   1.471   1.283   1.594  0.5309  0.9240  0.7601
  634SOL    HW2 1959   1.582   1.182   1.614  0.8492  0.8886 -1.0286
  635SOL     OW 1960   0.468   1.768   2.864 -0.5398 -0.0473 -0.0162
  635SOL    HW1 1961   0.391   1.717   2.888 -0.2383 -0.9103 -0.8504
  635SOL    HW2 1962   0.506   1.721   2.790 -0.3521  1.4694 -0.9351
  636SOL     OW 1963   3.158   2.072   1.144 -0.4508 -0.3584  0.1035
  636SOL    HW1 1964   3.077   2.030   1.116  0.3289 -0.8916 -1.4836
  636SOL    HW2 1965   3.160   2.155   1.096  0.8948 -1.2732 -1.5571
  637SOL     OW 1966   1.500   2.152   3.523 -0.5751  0.4142  0.1878
  637SOL    HW1 1967   1.506   2.246   3.540  0.8410  0.5009 -0.6458
  637SOL    HW2 1968   1.514   2.111   3.608 -0.5937  0.9497  0.4502
  638SOL     OW 1969   2.320   2.719   3.598  0.1163  0.2974  0.7869
  638SOL    HW1 1970   2.273   2.777   3.657  0.5915  0.0266  1.4485
  638SOL    HW2 1971   2.283   2.632   3.615 -1.3100  0.5199 -0.9270
  639SOL     OW 1972   2.144   2.554   3.920  0.2421  0.1038  0.0423
  639SOL    HW1 1973   2.215   2.614   3.944  0.6745 -1.0132  1.6873
  639SOL    HW2 1974   2.073   2.576   3.979  0.1760 -0.5822  0.2237
  640SOL     OW 1975   2.012   3.393   3.233 -0.4300  0.4274 -0.5051
  640SOL    HW1 1976   2.051   3.451   3.168 -0.0641  1.3599  0.5179
  640SOL    HW2 1977   1.918   3.394   3.213 -0.1304 -0.8161 -2.1842
  641SOL     OW 1978   3.262   2.165   1.976 -0.0419 -0.3344 -0.3078
  641SOL    HW1 1979   3.282   2.258   1.963 -0.6697  0.1165  1.6569
  641SOL    HW2 1980   3.286   2.148   2.067  0.0827 -2.1276 -0.6404
  642SOL     OW 1981   4.182   4.429   4.548  0.2567 -0.8912  0.1010
  642SOL    HW1 1982   4.230   4.350   4.523  0.3942 -0.9839  0.6436
  642SOL    HW2 1983   4.183   4.483   4.469  0.5773 -1.2250 -0.1316
  643SOL     OW 1984   0.814   1.851   2.652 -0.2619  0.3065 -0.6857
  643SOL    HW1 1985   0.827   1.920   2.586 -0.9444  1.4540  0.3395
  643SOL    HW2 1986   0.741   1.799   2.618 -0.4838  0.7712 -0.9284
  644SOL     OW 1987   2.554   1.063   3.648  0.1420 -0.0265 -0.3064
  644SOL    HW1 1988   2.477   1.025   3.605  0.1336 -0.2072 -0.1380
  644SOL    HW2 1989   2.622   1.064   3.581  0.4659 -1.3374 -0.0308
  645SOL     OW 1990   4.555   1.601   4.641  0.1051  0.1286  0.0037
  645SOL    HW1 1991   4.469   1.638   4.625 -0.6726 -0.7598  1.8201
  645SOL    HW2 1992   4.617   1.669   4.615 -1.1827  1.2583 -0.1542
  646SOL     OW 1993   4.755   1.632   4.370  0.4204 -0.1233 -0.7888
  646SOL    HW1 1994   4.845   1.602   4.364  0.1780 -1.4558  1.1966
  646SOL    HW2 1995   4.758   1.709   4.427  0.2203 -0.7890  0.1478
  647SOL     OW 1996   0.452   1.564   0.708 -0.0490  0.3010 -0.1637
  647SOL    HW1 1997   0.507   1.633   0.670  0.0964  0.3022  0.0441
  647SOL    HW2 1998   0.428   1.598   0.794 -0.7374  0.4875 -0.4246
  648SOL     OW 1999   2.102   3.946   1.794  0.5533  0.4443 -0.3878
  648SOL    HW1 2000   2.056   3.866   1.770  1.0596 -0.3705  1.1768
  648SOL    HW2 2001   2.171   3.916   1.854 -0.2042  2.2104  1.4636
  649SOL     OW 2002   4.328   4.769   3.245 -0.0832 -0.3295  0.0659
  649SOL    HW1 2003   4.418   4.750   3.272 -0.0510  0.5807  0.6476
  649SOL    HW2 2004   4.323   4.737   3.155  1.2957  0.9977 -0.5233
  650SOL     OW 2005   0.125   2.679   0.772  0.0925  0.2078  0.2093
  650SOL    HW1 2006   0.183   2.693   0.847 -2.1512 -1.3585  2.4049
  650SOL    HW2 2007   0.144   2.589   0.744 -1.0049 -0.2360  0.8040
  651SOL     OW 2008   2.754   4.337   3.521 -0.4031  0.2004 -0.1490
  651SOL    HW1 2009   2.678   4.323   3.579 -1.2630  0.6904 -1.1231
  651SOL    HW2 2010   2.768   4.253   3.478 -0.5551  0.1783 -0.1550
  652SOL     OW 2011   0.354   0.283   2.764 -0.4718 -0.3858  0.9410
  652SOL    HW1 2012   0.277   0.228   2.770 -0.7683  0.0401  1.0931
  652SOL    HW2 2013   0.320   0.373   2.765  0.1943  0.0696  5.7407
  653SOL     OW 2014   4.151   4.178   4.342 -0.0602 -0.4869 -0.2662
  653SOL    HW1 2015   4.065   4.165   4.383 -0.4508  1.4715 -0.3523
  653SOL    HW2 2016   4.140   4.143   4.253 -0.2498 -1.6814  0.2062
  654SOL     OW 2017   1.125   4.154   3.295 -0.1892  0.3432  0.3265
  654SOL    HW1 2018   1.049   4.197   3.334 -1.8388 -2.7617  0.8362
  654SOL    HW2 2019   1.180   4.132   3.370  0.8378  1.7927  0.0345
  655SOL     OW 2020   2.395   1.209   2.384 -0.3426 -0.2374 -0.2585
  655SOL    HW1 2021   2.427   1.269   2.317 -1.4956  0.9560  0.2082
  655SOL    HW2 2022   2.313   1.174   2.348 -0.9745  0.4234  0.5079
  656SOL     OW 2023   2.480   2.294   0.637  0.0023 -0.1404  0.3735
  656SOL    HW1 2024   2.411   2.348   0.598 -0.5671 -0.6635  0.6582
  656SOL    HW2 2025   2.546   2.358   0.664  0.4170  0.2515 -1.3959
  657SOL     OW 2026   3.519   3.015   1.258 -0.2577 -0.3713 -0.2915
  657SOL    HW1 2027   3.614   3.005   1.246  0.1644  2.5319 -0.0956
  657SOL    HW2 2028   3.480   2.965   1.187  1.5530  0.7601 -2.2047
  658SOL     OW 2029   4.845   3.188   2.148  0.0274 -0.3818  0.2840
  658SOL    HW1 2030   4.910   3.205   2.216 -0.1528 -0.2962  0.4337
  658SOL    HW2 2031   4.761   3.212   2.187  0.0886  1.3299 -0.5531
  659SOL     OW 2032   0.628   2.855   1.407  0.2587  0.0287  0.0158
  659SOL    HW1 2033   0.604   2.798   1.480 -1.3030  1.9378  1.0971
  659SOL    HW2 2034   0.721   2.870   1.418  0.4011 -1.1312  0.5433
  660SOL     OW 2035   1.453   3.265   1.546 -0.8452  0.5432 -0.6235
  660SOL    HW1 2036   1.522   3.303   1.491 -0.6461  0.8799 -0.1406
  660SOL    HW2 2037   1.464   3.171   1.536 -2.1995  0.5327 -2.9313
  661SOL     OW 2038   1.109   4.915   2.203 -0.0404  0.4324  0.1555
  661SOL    HW1 2039   1.105   4.949   2.293  2.0785 -0.3557  0.6038
  661SOL    HW2 2040   1.024   4.873   2.190 -0.1618 -0.0094  2.0421
  662SOL     OW 2041   4.396   0.124   2.411 -0.1008  0.1762  0.2164
  662SOL    HW1 2042   4.491   0.118   2.422 -0.1304 -1.4453 -0.0897
  662SOL    HW2 2043   4.360   0.085   2.490 -0.4743 -0.5157 -0.2784
  663SOL     OW 2044   3.037   4.289   1.950  0.6800  0.0646  0.3818
  663SOL    HW1 2045   2.966   4.347   1.980  1.6137  0.9628  0.9240
  663SOL    HW2 2046   3.036   4.216   2.012 -1.0372 -0.9896 -0.7780
  664SOL     OW 2047   3.699   2.691   2.058  0.4184 -0.1859 -0.1811
  664SOL    HW1 2048   3.739   2.638   2.126  2.2584  1.2084 -0.1086
  664SOL    HW2 2049   3.725   2.649   1.976 -0.4392 -0.9311 -0.0879
  665SOL     OW 2050   0.508   3.843   4.335  0.1073 -0.0256 -1.0569
  665SOL    HW1 2051   0.542   3.901   4.402 -0.7058  1.0442 -1.5367
  665SOL    HW2 2052   0.581   3.786   4.312  1.1536  1.2915 -1.0988
  666SOL     OW 2053   0.137   0.753   1.637 -0.0358 -0.1126 -0.0706
  666SOL    HW1 2054   0.221   0.707   1.630  0.1746  0.3976 -1.0073
  666SOL    HW2 2055   0.074   0.683   1.652  0.3724 -0.6651 -0.7996
  667SOL     OW 2056   2.518   2.187   1.328  0.1951 -0.6232 -0.4720
  667SOL    HW1 2057   2.432   2.213   1.362  0.1757 -1.4205  0.1138
  667SOL    HW2 2058   2.565   2.270   1.317  0.8534 -0.3050  3.2777
  668SOL     OW 2059   2.542   3.638   0.498 -0.2590  0.3668 -0.4124
  668SOL    HW1 2060   2.565   3.721   0.540  0.0388 -0.9143  2.2035
  668SOL    HW2 2061   2.561   3.572   0.565 -1.4805 -1.7313 -2.0143
  669SOL     OW 2062   0.077   4.086   3.717 -0.2360 -0.6999 -0.5815
  669SOL    HW1 2063   0.059   4.025   3.646 -0.3261 -0.7102 -0.5511
  669SOL    HW2 2064  -0.005   4.087   3.768  0.5782 -2.4914  0.8925
  670SOL     OW 2065   1.618   2.671   1.926 -0.1910  0.5306  0.0750
  670SOL    HW1 2066   1.596   2.607   1.994  1.7450 -0.1452  0.1036
  670SOL    HW2 2067   1.540   2.674   1.871 -0.6442 -1.2298  0.5554
  671SOL     OW 2068   4.091   3.738   3.092 -0.2796  0.0575  0.1212
  671SOL    HW1 2069   4.014   3.697   3.133 -1.4804  1.6073 -0.4865
  671SOL    HW2 2070   4.092   3.702   3.003  0.2242 -0.6065  0.3864
  672SOL     OW 2071   0.285   2.196   2.910  0.2600 -0.8188 -0.0426
  672SOL    HW1 2072   0.214   2.133   2.914 -1.2855  0.6850 -2.0354
  672SOL    HW2 2073   0.360   2.147   2.878 -0.8143 -1.7319 -1.2179
  673SOL     OW 2074   1.785   1.838   4.735 -0.4454 -0.5018 -0.0470
  673SOL    HW1 2075   1.779   1.902   4.664  1.6697 -1.0272 -0.7443
  673SOL    HW2 2076   1.735   1.762   4.703  0.4560 -0.7195 -0.9767
  674SOL     OW 2077   4.333   0.696   2.732  0.4151 -0.2170  0.5012
  674SOL    HW1 2078   4.333   0.791   2.742  0.4447 -0.3628  2.2343
  674SOL    HW2 2079   4.244   0.675   2.703  0.6587  0.3874 -0.7482
  675SOL     OW 2080   0.673   0.149   4.910  0.5317  0.3068  0.1468
  675SOL    HW1 2081   0.648   0.096   4.985 -0.1637 -3.4121 -2.4152
  675SOL    HW2 2082   0.766   0.169   4.924  0.9054 -1.9054  1.1641
  676SOL     OW 2083   1.617   1.223   0.371  0.4477 -0.3115 -0.0138
  676SOL    HW1 2084   1.706   1.258   0.370  0.2435  0.2267  0.3236
  676SOL    HW2 2085   1.568   1.285   0.425 -0.0272 -0.8622  0.1871
  677SOL     OW 2086   2.661   3.659   4.875 -0.1126 -0.0732  0.1917
  677SOL    HW1 2087   2.679   3.575   4.833  0.5330  0.0540  0.2095
  677SOL    HW2 2088   2.566   3.669   4.867  0.1124  0.6283 -2.5450
  678SOL     OW 2089   1.628   4.958   1.502 -0.5256  0.3189  0.1732
  678SOL    HW1 2090   1.717   4.922   1.498 -0.4074  0.6252 -0.0327
  678SOL    HW2 2091   1.630   5.033   1.443 -0.6431  0.9367  0.9338
  679SOL     OW 2092   1.679   3.263   4.979 -0.6928  0.8701  0.7548
  679SOL    HW1 2093   1.774   3.271   4.990 -0.7305  1.1871  0.8562
  679SOL    HW2 2094   1.663   3.293   4.890 -0.7670  1.3792  0.9393
  680SOL     OW 2095   3.244   0.348   4.376  0.1372 -0.1725  0.5653
  680SOL    HW1 2096   3.316   0.395   4.419  2.4569 -4.1596  1.5252
  680SOL    HW2 2097   3.279   0.323   4.291 -1.0381 -0.1626  0.0688
  681SOL     OW 2098   0.984   0.337   2.688  0.5820 -0.2299 -0.0724
  681SOL    HW1 2099   0.928   0.289   2.627 -0.3085 -0.5333  0.9606
  681SOL    HW2 2100   1.073   0.315   2.661  0.2126 -0.4649 -1.1685
  682SOL     OW 2101   0.816   3.941   1.309  0.2564 -0.0902  0.6290
  682SOL    HW1 2102   0.893   3.896   1.343  0.6039  0.0600  0.0708
  682SOL    HW2 2103   0.780   3.988   1.384 -1.2407 -2.7548  1.7160
  683SOL     OW 2104   1.739   3.275   3.829  0.3815  0.3768  0.5090
  683SOL    HW1 2105   1.715   3.366   3.848  2.5698  1.0072  0.5742
  683SOL    HW2 2106   1.782   3.278   3.744  0.0444 -0.6837  0.2841
  684SOL     OW 2107   0.990   0.205   2.367  0.1512 -0.5131 -0.7735
  684SOL    HW1 2108   1.045   0.151   2.424  1.3452 -1.1590 -2.4343
  684SOL    HW2 2109   0.921   0.238   2.424  2.1582  0.2198  1.3884
  685SOL     OW 2110   0.723   4.101   0.967 -0.0055  0.1976 -0.1482
  685SOL    HW1 2111   0.777   4.024   0.982 -1.4001 -0.4905  1.6697
  685SOL    HW2 2112   0.675   4.082   0.886 -1.2293 -1.4289  0.9069
  686SOL     OW 2113   2.336   3.702   1.339  0.1971 -0.1241 -0.4266
  686SOL    HW1 2114   2.270   3.770   1.323  1.1906  1.2640  1.0671
  686SOL    HW2 2115   2.404   3.721   1.275  0.5731  0.4455  0.1334
  687SOL     OW 2116   1.033   3.701   4.880 -0.3711  0.4338  0.4929
  687SOL    HW1 2117   0.991   3.782   4.852 -0.2091  0.1004 -0.7870
  687SOL    HW2 2118   0.966   3.655   4.931 -0.9403  0.7218  0.0132
  688SOL     OW 2119   0.551   3.752   2.119 -0.1335  0.3797  0.0381
  688SOL    HW1 2120   0.492   3.820   2.087 -1.7539 -0.2574  1.5181
  688SOL    HW2 2121   0.545   3.682   2.053 -2.0521 -0.1912  0.7603
  689SOL     OW 2122   4.161   0.353   1.342 -0.2660 -0.4682 -0.6793
  689SOL    HW1 2123   4.115   0.437   1.339 -0.5613 -0.5724  0.4849
  689SOL    HW2 2124   4.228   0.359   1.274  2.3424  2.2400  1.8358
  690SOL     OW 2125   0.490   4.768   4.468 -0.5501 -0.1855  0.2029
  690SOL    HW1 2126   0.584   4.767   4.447 -0.5383  1.5252  0.0240
  690SOL    HW2 2127   0.485   4.733   4.557  0.3971  0.8325  0.6757
  691SOL     OW 2128   1.039   0.570   3.470  0.7241 -0.3433 -0.6138
  691SOL    HW1 2129   1.095   0.548   3.395  0.0021 -2.3797 -0.6021
  691SOL    HW2 2130   0.978   0.635   3.436  2.1954  0.9232 -0.9803
  692SOL     OW 2131   4.691   0.646   2.721 -0.1925  0.3413 -0.4475
  692SOL    HW1 2132   4.630   0.719   2.731 -0.0432  0.2257  2.0240
  692SOL    HW2 2133   4.761   0.680   2.666 -2.4513  0.4188 -3.5573
  693SOL     OW 2134   0.422   3.626   3.152 -0.5078  0.2044 -0.5620
  693SOL    HW1 2135   0.460   3.708   3.186 -0.3331  0.8782 -2.2858
  693SOL    HW2 2136   0.338   3.619   3.196 -0.7516  1.5972 -0.7371
  694SOL     OW 2137   3.716   0.691   2.158  0.2826  0.2634 -0.4930
  694SOL    HW1 2138   3.766   0.682   2.077  0.2518 -0.5207 -0.4331
  694SOL    HW2 2139   3.672   0.776   2.151  1.5218  0.9181 -0.5980
  695SOL     OW 2140   1.333   1.535   3.127  0.0254 -0.0518  0.0694
  695SOL    HW1 2141   1.291   1.465   3.077  1.5324 -0.5950 -0.4937
  695SOL    HW2 2142   1.270   1.558   3.194 -0.8118 -1.4323 -0.2146
  696SOL     OW 2143   2.833   1.049   2.000 -0.3123  0.5119  0.2271
  696SOL    HW1 2144   2.759   1.006   1.957  1.5435 -1.3914 -1.2246
  696SOL    HW2 2145   2.804   1.061   2.090 -2.3716 -0.2263 -0.2877
  697SOL     OW 2146   4.835   0.751   3.550  0.2007 -0.1357 -0.2043
  697SOL    HW1 2147   4.812   0.738   3.642  0.3198 -1.9472 -0.3916
  697SOL    HW2 2148   4.756   0.728   3.502 -0.6288  3.0037 -0.5474
  698SOL     OW 2149   1.734   4.284   2.266 -0.0921 -0.2366 -0.3605
  698SOL    HW1 2150   1.787   4.352   2.308 -0.0141 -0.0539 -0.7437
  698SOL    HW2 2151   1.723   4.316   2.176  0.6422 -1.1324 -0.7812
  699SOL     OW 2152   1.958   2.236   3.523  0.1318 -0.0650 -0.1560
  699SOL    HW1 2153   1.878   2.266   3.564  0.2500 -1.2991  1.0578
  699SOL    HW2 2154   1.931   2.161   3.470  0.2171  0.6185 -1.1907
  700SOL     OW 2155   3.113   0.475   1.158  0.5350  0.1024 -0.0113
  700SOL    HW1 2156   3.140   0.563   1.181  0.5299 -0.0480  0.5929
  700SOL    HW2 2157   3.124   0.424   1.238 -0.7257 -0.1482  0.0282
  701SOL     OW 2158   4.380   0.947   0.353 -0.1990  0.0294 -0.1552
  701SOL    HW1 2159   4.330   1.015   0.398 -2.8176 -1.5869 -0.4214
  701SOL    HW2 2160   4.440   0.914   0.420 -3.0562 -1.3995  1.9147
  702SOL     OW 2161   4.970   1.116   3.683 -0.8091 -0.0056  0.3764
  702SOL    HW1 2162   4.958   1.206   3.654  0.5385 -0.4990 -2.0378
  702SOL    HW2 2163   4.883   1.087   3.711 -1.4554  1.7237  0.2455
  703SOL     OW 2164   3.155   3.360   4.239 -1.0766 -0.2694  0.0479
  703SOL    HW1 2165   3.132   3.399   4.323 -1.8694 -0.4331 -0.0878
  703SOL    HW2 2166   3.072   3.328   4.204 -0.5153 -1.7862  0.0106
  704SOL     OW 2167   0.709   3.976   2.788  0.2529  0.0832 -0.3302
  704SOL    HW1 2168   0.618   3.957   2.811  0.9846 -2.0507  1.1211
  704SOL    HW2 2169   0.738   3.899   2.740  1.0110  1.2383 -1.8174
  705SOL     OW 2170   1.217   2.929   4.091 -0.2283  0.3796  0.4441
  705SOL    HW1 2171   1.201   3.019   4.119 -1.1830  0.1791  0.5670
  705SOL    HW2 2172   1.154   2.877   4.140  2.0803 -0.7373  2.4851
  706SOL     OW 2173   3.386   2.892   1.048 -0.5632 -0.2661 -0.3971
  706SOL    HW1 2174   3.403   2.955   0.977 -0.0865 -1.4806 -1.3941
  706SOL    HW2 2175   3.348   2.816   1.004  1.4036 -1.7673  0.3282
  707SOL     OW 2176   3.888   0.945   1.827 -0.8459  0.5557 -0.3428
  707SOL    HW1 2177   3.922   0.953   1.738 -0.3799 -1.9961 -0.4717
  707SOL    HW2 2178   3.804   0.992   1.826  0.4254  2.9196 -1.3143
  708SOL     OW 2179   2.937   4.516   0.401  0.0285  0.5097 -0.0820
  708SOL    HW1 2180   2.976   4.441   0.355  2.0969  0.0160  2.2490
  708SOL    HW2 2181   2.865   4.478   0.451  0.9306  0.0843  0.9199
  709SOL     OW 2182   1.179   1.711   0.423  0.8193  0.1192  0.2799
  709SOL    HW1 2183   1.129   1.737   0.345 -0.0994  0.3998  0.9398
  709SOL    HW2 2184   1.129   1.637   0.459  0.2074  1.1307  1.5900
  710SOL     OW 2185   4.644   0.604   0.320  0.6810  0.6025 -0.5513
  710SOL    HW1 2186   4.723   0.631   0.367  0.6650  0.3063 -0.3537
  710SOL    HW2 2187   4.672   0.597   0.229  0.7986  0.8333 -0.5331
  711SOL     OW 2188   3.275   0.707   3.211  0.2171  0.8483 -0.2285
  711SOL    HW1 2189   3.261   0.649   3.286  1.1607  0.1040 -0.5978
  711SOL    HW2 2190   3.242   0.657   3.136  0.5685  0.9925 -0.4831
  712SOL     OW 2191   1.766   1.379   1.743  0.2441 -0.3945 -0.4841
  712SOL    HW1 2192   1.763   1.301   1.799  0.3263  0.2368  0.4242
  712SOL    HW2 2193   1.718   1.354   1.664 -1.2803 -0.8108  0.5287
  713SOL     OW 2194   4.483   2.389   4.531  0.3455 -0.5218  0.0843
  713SOL    HW1 2195   4.504   2.453   4.463 -1.3748  1.3827  1.2292
  713SOL    HW2 2196   4.457   2.310   4.482  2.7214 -0.4940 -1.3516
  714SOL     OW 2197   1.135   3.317   2.163 -0.0283  0.0398 -0.2951
  714SOL    HW1 2198   1.214   3.355   2.200 -0.2734 -0.2536  0.5382
  714SOL    HW2 2199   1.079   3.393   2.143 -0.4223  0.1586  1.1513
  715SOL     OW 2200   3.657   0.973   2.079  0.3503 -0.4036 -0.4652
  715SOL    HW1 2201   3.594   1.019   2.024  0.7459 -1.7808 -2.1394
  715SOL    HW2 2202   3.729   1.035   2.090 -0.4076  0.4602 -0.1483
  716SOL     OW 2203   0.161   0.861   2.780 -0.2129  0.1431 -0.2538
  716SOL    HW1 2204   0.120   0.900   2.857  0.8852 -1.0935  0.9953
  716SOL    HW2 2205   0.088   0.847   2.719 -1.1778  0.7004  0.7387
  717SOL     OW 2206   4.015   0.907   0.020 -0.1201 -0.2367 -0.6125
  717SOL    HW1 2207   3.998   0.999   0.044 -0.0787 -0.8443  2.1427
  717SOL    HW2 2208   4.109   0.906   0.000  0.2936  0.0560  1.1260
  718SOL     OW 2209   1.728   2.535   4.338  0.0401 -0.3647 -0.0825
  718SOL    HW1 2210   1.795   2.533   4.407  0.7595 -1.4525 -0.7811
  718SOL    HW2 2211   1.702   2.443   4.327 -0.6976 -0.0955 -0.6500
  719SOL     OW 2212   0.539   2.222   4.857 -0.6611  0.0338 -0.0666
  719SOL    HW1 2213   0.502   2.311   4.860 -0.3114  0.1557  0.9097
  719SOL    HW2 2214   0.576   2.208   4.944 -0.6403 -1.0491 -0.2343
  720SOL     OW 2215   2.252   2.910   4.631 -0.2316 -0.1699  0.2934
  720SOL    HW1 2216   2.332   2.875   4.669 -0.5598 -0.8477  0.3611
  720SOL    HW2 2217   2.209   2.835   4.592 -2.4314 -0.5182  3.0311
  721SOL     OW 2218   0.214   2.561   3.397 -0.0649  0.1305 -0.1994
  721SOL    HW1 2219   0.257   2.481   3.369 -1.0429  0.0038 -1.4015
  721SOL    HW2 2220   0.148   2.532   3.461  1.6358  0.3399  1.7581
  722SOL     OW 2221   0.743   1.942   0.885  0.1612  0.0126 -0.4192
  722SOL    HW1 2222   0.703   1.951   0.799 -0.5140  2.5822  0.1056
  722SOL    HW2 2223   0.680   1.979   0.946  2.6213  3.0082  0.5892
  723SOL     OW 2224   1.227   4.264   0.646 -0.0402  0.3139  0.1502
  723SOL    HW1 2225   1.219   4.192   0.709 -0.5624  0.8064  0.6544
  723SOL    HW2 2226   1.278   4.330   0.692 -1.1200  1.0137  0.3757
  724SOL     OW 2227   4.423   0.752   4.335 -0.2361 -0.0930 -0.4822
  724SOL    HW1 2228   4.339   0.718   4.366  1.0557 -0.8683  2.5547
  724SOL    HW2 2229   4.471   0.675   4.305  0.4333 -0.1309  0.6155
  725SOL     OW 2230   3.505   3.248   1.859  0.4709 -0.0225  0.2746
  725SOL    HW1 2231   3.474   3.159   1.878  0.1472  0.0275 -0.0128
  725SOL    HW2 2232   3.443   3.281   1.794  0.8938  0.2245 -0.0038
  726SOL     OW 2233   0.591   0.380   0.061  0.9985  0.1080  0.1160
  726SOL    HW1 2234   0.531   0.427   0.004  2.1905  1.7234  0.1408
  726SOL    HW2 2235   0.620   0.305   0.009 -0.3637 -0.2446 -0.1872
  727SOL     OW 2236   3.671   2.160   0.487  0.6103 -0.4052  0.9308
  727SOL    HW1 2237   3.692   2.090   0.426  3.0494  0.0174  1.1894
  727SOL    HW2 2238   3.705   2.130   0.572  0.8536  0.6616  1.2339
  728SOL     OW 2239   2.678   2.596   4.484 -0.4287 -0.2491  0.6310
  728SOL    HW1 2240   2.718   2.561   4.565 -1.8712 -1.4432  0.8827
  728SOL    HW2 2241   2.696   2.529   4.418  0.2595  0.4645  0.0743
  729SOL     OW 2242   2.970   2.202   4.542  0.0111 -0.0541 -0.3032
  729SOL    HW1 2243   2.888   2.252   4.540  0.8170  1.3654 -3.0886
  729SOL    HW2 2244   3.034   2.264   4.577  0.5255  0.0112 -1.3428
  730SOL     OW 2245   1.825   0.392   2.148 -0.1070  0.2661 -0.6840
  730SOL    HW1 2246   1.821   0.354   2.236 -3.1981  0.6490 -0.5471
  730SOL    HW2 2247   1.760   0.342   2.098  1.3812  0.2645 -2.7106
  731SOL     OW 2248   3.133   0.412   0.870  0.3234  0.3259 -0.0957
  731SOL    HW1 2249   3.079   0.463   0.810  0.1324  0.6450  0.3424
  731SOL    HW2 2250   3.143   0.468   0.947 -1.7837 -1.1588  1.3697
  732SOL     OW 2251   1.755   4.358   1.708 -0.5976  0.5800 -0.0090
  732SOL    HW1 2252   1.700   4.295   1.755  1.1345  0.0330  1.4003
  732SOL    HW2 2253   1.791   4.308   1.635 -0.8796  0.5388 -0.1209
  733SOL     OW 2254   3.757   1.544   1.720  0.2362  0.5933 -0.3801
  733SOL    HW1 2255   3.762   1.631   1.680  1.4450  0.4353 -0.5922
  733SOL    HW2 2256   3.847   1.514   1.724  0.0177  0.0632  1.3079
  734SOL     OW 2257   3.459   1.488   2.884 -0.5976 -0.2212  0.0290
  734SOL    HW1 2258   3.384   1.546   2.870 -0.4287 -0.3985 -2.0142
  734SOL    HW2 2259   3.425   1.418   2.940 -1.7235  0.1533 -0.1562
  735SOL     OW 2260   2.489   4.850   3.574  0.6345 -0.0378  0.3044
  735SOL    HW1 2261   2.537   4.781   3.621 -1.7794 -2.3034 -0.3604
  735SOL    HW2 2262   2.493   4.824   3.482  0.2654  1.1108 -0.0492
  736SOL     OW 2263   2.196   2.948   4.211  0.0413 -0.2528 -0.4122
  736SOL    HW1 2264   2.278   2.900   4.223  0.0074 -0.2164 -0.0046
  736SOL    HW2 2265   2.195   3.010   4.284 -0.1164  0.0793 -0.6978
  737SOL     OW 2266   3.500   2.994   2.633  0.1391 -0.4144 -0.5053
  737SOL    HW1 2267   3.508   3.086   2.660  1.7074 -0.8231  0.5496
  737SOL    HW2 2268   3.410   2.971   2.655 -0.0846  0.6974 -0.1911
  738SOL     OW 2269   0.331   2.233   4.418  0.6852  0.4705 -0.0474
  738SOL    HW1 2270   0.311   2.183   4.497  1.1563  0.7092  0.2275
  738SOL    HW2 2271   0.358   2.167   4.354  1.0806  0.3508  0.2399
  739SOL     OW 2272   2.931   3.443   4.498  0.0962 -0.8378  0.2316
  739SOL    HW1 2273   2.916   3.493   4.418 -1.1209  0.2880  1.1196
  739SOL    HW2 2274   2.859   3.380   4.502  0.1531 -0.8926  0.4384
  740SOL     OW 2275   3.224   0.921   1.085 -0.4419 -0.4621  0.2444
  740SOL    HW1 2276   3.290   0.975   1.041 -0.7358 -1.2351 -1.1927
  740SOL    HW2 2277   3.169   0.887   1.014 -2.9787  0.8801  1.4464
  741SOL     OW 2278   3.886   2.907   4.542  0.0561  0.6871 -0.1817
  741SOL    HW1 2279   3.799   2.877   4.514  0.2413 -0.6106  0.5574
  741SOL    HW2 2280   3.947   2.868   4.479  0.1361  1.3177 -0.4995
  742SOL     OW 2281   1.878   1.217   0.093 -0.0014 -0.0949  0.2104
  742SOL    HW1 2282   1.863   1.227   0.187 -0.3630 -0.2367  0.1691
  742SOL    HW2 2283   1.800   1.172   0.061 -0.1972  0.5675 -0.2760
  743SOL     OW 2284   0.527   3.157   4.074 -0.2827 -0.2142 -0.0066
  743SOL    HW1 2285   0.513   3.096   4.146 -0.8277 -1.1604 -0.8895
  743SOL    HW2 2286   0.612   3.197   4.093 -0.9622  0.4564  1.7786
  744SOL     OW 2287   3.217   1.691   1.598  0.0336 -0.4232 -0.7462
  744SOL    HW1 2288   3.213   1.786   1.587  0.2056 -0.2020  0.8640
  744SOL    HW2 2289   3.234   1.678   1.691 -0.5278 -2.0565 -0.8346
  745SOL     OW 2290   2.820   0.080   2.803  0.1381 -0.0034 -0.1112
  745SOL    HW1 2291   2.817  -0.000   2.855  1.6298 -0.6307 -0.9459
  745SOL    HW2 2292   2.869   0.057   2.724 -2.8035  0.6564 -2.3334
  746SOL     OW 2293   2.168   2.224   2.113 -0.3412  0.3278 -0.2863
  746SOL    HW1 2294   2.174   2.219   2.017 -1.5901  0.9073 -0.4231
  746SOL    HW2 2295   2.074   2.225   2.130 -0.1623 -1.6522  1.0769
  747SOL     OW 2296   2.547   3.203   2.291  0.2813 -0.1269 -0.3390
  747SOL    HW1 2297   2.576   3.112   2.287  0.4028 -0.1291  0.5261
  747SOL    HW2 2298   2.596   3.247   2.222  0.9010 -0.5291 -0.1625
  748SOL     OW 2299   2.192   4.819   1.179 -0.2585  0.1226  0.1830
  748SOL    HW1 2300   2.277   4.860   1.193  0.1414 -0.4396 -0.5670
  748SOL    HW2 2301   2.209   4.748   1.117 -1.1481 -0.4356  0.5613
  749SOL     OW 2302   3.673   4.597   2.758 -0.5666  0.0457  0.0393
  749SOL    HW1 2303   3.628   4.542   2.823 -1.7879 -0.1457 -0.9158
  749SOL    HW2 2304   3.683   4.681   2.801  0.3466 -0.6022  1.1419
  750SOL     OW 2305   3.322   4.136   3.733 -0.5295  0.2927  0.6853
  750SOL    HW1 2306   3.366   4.059   3.768  0.3891  0.5649  0.1684
  750SOL    HW2 2307   3.393   4.199   3.719 -1.4098  1.6801  2.2449
  751SOL     OW 2308   3.872   3.935   4.961 -0.3750  0.1606 -0.4564
  751SOL    HW1 2309   3.805   3.914   5.027 -0.9520  0.6261 -0.8789
  751SOL    HW2 2310   3.835   3.901   4.879 -0.4318  1.0794 -0.8173
  752SOL     OW 2311   0.524   0.043   0.496 -0.2401  0.0359  0.0395
  752SOL    HW1 2312   0.566  -0.037   0.465 -0.2045  0.2216 -0.3950
  752SOL    HW2 2313   0.486   0.083   0.418  0.1678  0.6947  0.1679
  753SOL     OW 2314   1.405   0.529   2.975 -0.1960 -0.0839 -0.2477
  753SOL    HW1 2315   1.445   0.583   3.044 -1.3008  0.9753 -0.4127
  753SOL    HW2 2316   1.334   0.582   2.941 -0.4653 -1.1179 -1.3594
  754SOL     OW 2317   3.558   3.725   1.449  0.0550 -0.1276  0.7120
  754SOL    HW1 2318   3.475   3.732   1.496  0.0857 -0.6784  0.8566
  754SOL    HW2 2319   3.564   3.633   1.425 -0.0815  0.1862 -0.6193
  755SOL     OW 2320   2.073   3.326   4.507  0.1344  0.3120 -0.5345
  755SOL    HW1 2321   2.132   3.401   4.499  0.8802 -0.3040 -1.0098
  755SOL    HW2 2322   2.011   3.351   4.576  2.7756 -0.1883  2.2493
  756SOL     OW 2323   4.556   4.696   1.570  0.0924  0.1945 -0.0844
  756SOL    HW1 2324   4.642   4.655   1.563 -0.6986 -1.5842  0.0481
  756SOL    HW2 2325   4.566   4.761   1.639  1.3436  0.0537 -0.1188
  757SOL     OW 2326   4.597   0.245   1.781 -0.1296  0.5657  0.0435
  757SOL    HW1 2327   4.501   0.248   1.784 -0.1173  0.5446  0.6702
  757SOL    HW2 2328   4.617   0.195   1.702 -0.6573 -0.4142  0.5167
  758SOL     OW 2329   4.711   2.873   1.263 -0.1094  0.3181 -0.0865
  758SOL    HW1 2330   4.734   2.958   1.228 -1.3448  0.3178 -0.9928
  758SOL    HW2 2331   4.716   2.883   1.358  0.2700  1.2375 -0.1996
  759SOL     OW 2332   4.907   3.655   3.078  0.0560  0.1711 -0.0234
  759SOL    HW1 2333   4.921   3.608   2.996  2.6405 -1.2374  1.1252
  759SOL    HW2 2334   4.889   3.586   3.142  1.9755  0.8717  1.3358
  760SOL     OW 2335   1.535   4.333   1.396 -0.2586 -0.2320  0.0114
  760SOL    HW1 2336   1.467   4.354   1.460  0.9949 -0.9004  1.6301
  760SOL    HW2 2337   1.562   4.418   1.362 -1.8535  0.0435 -0.6323
  761SOL     OW 2338   0.601   3.597   0.972 -0.0210  0.6206 -0.2357
  761SOL    HW1 2339   0.570   3.535   1.038  1.8076  2.3502  2.4912
  761SOL    HW2 2340   0.522   3.638   0.936 -1.0850 -0.5908  0.6673
  762SOL     OW 2341   4.915   1.400   3.189  0.6135 -0.1594 -0.0093
  762SOL    HW1 2342   4.829   1.370   3.161  0.0581  0.5997  0.8105
  762SOL    HW2 2343   4.967   1.321   3.200  0.5096 -0.5442 -2.0204
  763SOL     OW 2344   3.320   0.007   4.182 -0.1957 -0.4539 -0.0016
  763SOL    HW1 2345   3.225   0.001   4.172 -0.3240  1.1272 -0.0603
  763SOL    HW2 2346   3.333   0.022   4.276 -0.3014  2.7317 -0.3922
  764SOL     OW 2347   0.869   0.123   0.942  0.7241 -0.0308  0.1580
  764SOL    HW1 2348   0.810   0.132   0.867  0.4149  1.5181  0.5637
  764SOL    HW2 2349   0.812   0.100   1.015  0.7747  0.3173  0.3086
  765SOL     OW 2350   1.764   0.494   2.852  0.5300 -0.0495  0.1850
  765SOL    HW1 2351   1.850   0.535   2.844  0.3364  0.4188  0.4640
  765SOL    HW2 2352   1.702   0.565   2.835  0.1941 -0.2866  0.4046
  766SOL     OW 2353   3.332   3.707   4.884  0.2272  0.4234 -0.2917
  766SOL    HW1 2354   3.330   3.766   4.959  3.0549  0.0097  0.2440
  766SOL    HW2 2355   3.270   3.638   4.905 -0.2671  1.1878  0.8718
  767SOL     OW 2356   1.711   0.871   1.679  0.1883 -0.5491  0.6473
  767SOL    HW1 2357   1.777   0.801   1.673 -0.9800 -1.5991 -1.0790
  767SOL    HW2 2358   1.738   0.935   1.613 -0.0235 -0.5361  0.5725
  768SOL     OW 2359   3.606   2.577   1.701 -0.3157 -0.1393  0.2759
  768SOL    HW1 2360   3.635   2.487   1.716  1.3634  0.6378  2.1996
  768SOL    HW2 2361   3.648   2.603   1.620 -0.1104 -0.8065  0.1578
  769SOL     OW 2362   3.487   0.444   4.484  0.0340  0.1835  0.5836
  769SOL    HW1 2363   3.530   0.364   4.456  1.6545  1.3601 -0.5065
  769SOL    HW2 2364   3.545   0.479   4.553 -0.9758  0.1297  1.4846
  770SOL     OW 2365   2.287   2.478   4.818 -0.3902  0.1508 -0.7955
  770SOL    HW1 2366   2.206   2.428   4.807 -0.3360 -0.0800 -0.2340
  770SOL    HW2 2367   2.285   2.506   4.910  0.6205 -0.6977 -0.4944
  771SOL     OW 2368   0.918   3.052   4.644  0.0928 -0.6208  0.4205
  771SOL    HW1 2369   0.887   3.086   4.728  1.7639  2.4110 -0.0204
  771SOL    HW2 2370   1.001   3.009   4.664  1.4297  1.7104  0.2066
  772SOL     OW 2371   2.466   4.476   4.916  0.3514 -0.3037 -0.1581
  772SOL    HW1 2372   2.371   4.483   4.905  0.0207 -2.4677  0.7829
  772SOL    HW2 2373   2.500   4.560   4.884 -1.8393  0.4490 -0.7153
  773SOL     OW 2374   4.858   4.039   1.691 -0.2669  0.5342 -0.0694
  773SOL    HW1 2375   4.813   3.955   1.704 -0.1698  0.3375 -0.9999
  773SOL    HW2 2376   4.799   4.089   1.635  0.2897  0.5955 -0.6017
  774SOL     OW 2377   4.281   4.067   2.778 -0.2971 -0.5397 -0.0081
  774SOL    HW1 2378   4.294   4.106   2.864  0.1564 -0.1940 -0.2251
  774SOL    HW2 2379   4.235   4.135   2.728  3.7145  1.4176 -1.5606
  775SOL     OW 2380   1.028   2.836   3.094  0.5223 -0.1477 -0.2430
  775SOL    HW1 2381   1.004   2.927   3.078 -0.3735  0.1340  2.1970
  775SOL    HW2 2382   1.046   2.833   3.188 -1.4776 -2.8836  0.1580
  776SOL     OW 2383   0.314   3.077   1.971  0.3369  0.0708 -0.4408
  776SOL    HW1 2384   0.369   3.001   1.992  1.2520  1.2656  1.9190
  776SOL    HW2 2385   0.234   3.063   2.021 -1.5768 -1.5478 -3.6888
  777SOL     OW 2386   1.303   0.630   3.593  0.6153 -0.2174 -0.4249
  777SOL    HW1 2387   1.263   0.631   3.680  0.4170 -2.0711 -0.4394
  777SOL    HW2 2388   1.229   0.617   3.533  0.9634 -1.1500 -0.6681
  778SOL     OW 2389   1.476   2.656   2.975 -0.3281 -0.3948 -0.4437
  778SOL    HW1 2390   1.496   2.658   3.069 -2.5730 -0.4824  0.1072
  778SOL    HW2 2391   1.472   2.748   2.949  2.5470 -0.3621 -1.0688
  779SOL     OW 2392   0.240   1.460   1.491  0.1545 -0.3351  0.3365
  779SOL    HW1 2393   0.160   1.451   1.440  0.8716  0.5015 -0.9956
  779SOL    HW2 2394   0.245   1.379   1.542 -1.0778 -0.7771 -0.1958
  780SOL     OW 2395   4.029   0.073   1.606 -0.4333  0.2624 -0.1008
  780SOL    HW1 2396   4.115   0.058   1.566  0.3737 -1.6445  2.1304
  780SOL    HW2 2397   3.966   0.043   1.540  0.4811  2.3685 -2.0633
  781SOL     OW 2398   4.313   1.884   3.842 -0.2142  0.7234 -0.1688
  781SOL    HW1 2399   4.285   1.911   3.929 -0.2815  2.0485 -0.5714
  781SOL    HW2 2400   4.408   1.875   3.849 -0.0723  2.0028 -0.2336
  782SOL     OW 2401   2.670   3.124   1.875 -0.1060  0.3724 -0.2112
  782SOL    HW1 2402   2.763   3.121   1.852  0.4295  0.3130  1.7968
  782SOL    HW2 2403   2.663   3.192   1.942 -1.2618 -0.5535  0.6558
  783SOL     OW 2404   0.796   4.619   2.452 -0.7757  0.1423 -0.4170
  783SOL    HW1 2405   0.731   4.602   2.520 -0.4554 -2.3287 -0.6268
  783SOL    HW2 2406   0.753   4.681   2.393 -1.5504  1.3075  1.3071
  784SOL     OW 2407   0.771   0.244   2.546 -0.0057 -0.2412 -0.3313
  784SOL    HW1 2408   0.729   0.166   2.509  2.0693 -0.7898 -1.6904
  784SOL    HW2 2409   0.707   0.314   2.531 -1.1166 -1.3182 -0.8204
  785SOL     OW 2410   2.527   3.814   0.117 -0.4815  0.5829 -0.2838
  785SOL    HW1 2411   2.449   3.869   0.112 -0.6970  0.2185 -0.9603
  785SOL    HW2 2412   2.591   3.858   0.061  0.0845  1.3179  0.8957
  786SOL     OW 2413   3.030   0.844   4.743 -0.2924  0.1652  0.6785
  786SOL    HW1 2414   2.934   0.851   4.739 -0.6301 -2.9798  0.8358
  786SOL    HW2 2415   3.055   0.897   4.818 -2.0697  0.0251  1.4105
  787SOL     OW 2416   1.217   1.316   1.983  0.3497  0.4010 -0.1900
  787SOL    HW1 2417   1.186   1.228   1.959  2.4715 -0.5666  0.3468
  787SOL    HW2 2418   1.160   1.376   1.936  0.9689 -1.2985 -3.3990
  788SOL     OW 2419   2.451   3.207   1.351 -0.1572 -0.9570  0.2274
  788SOL    HW1 2420   2.506   3.165   1.416  0.2854 -0.1834  0.3682
  788SOL    HW2 2421   2.421   3.288   1.394  0.1964 -0.4058 -0.5502
  789SOL     OW 2422   1.672   0.631   4.565  0.6132  0.0233  0.0054
  789SOL    HW1 2423   1.657   0.568   4.635 -1.2042  0.5993  0.1764
  789SOL    HW2 2424   1.685   0.577   4.487 -0.1548 -0.5834  0.2848
  790SOL     OW 2425   3.518   4.323   3.669 -0.2316 -0.0937  0.5973
  790SOL    HW1 2426   3.554   4.296   3.585 -1.9751 -1.0356  0.1049
  790SOL    HW2 2427   3.509   4.418   3.662 -3.0090 -0.3612 -1.5057
  791SOL     OW 2428   4.372   1.024   2.721  0.2132 -0.6056 -0.1988
  791SOL    HW1 2429   4.358   1.116   2.699 -1.2960 -0.8097 -0.2476
  791SOL    HW2 2430   4.319   1.010   2.799 -1.0199 -1.8153 -1.1933
  792SOL     OW 2431   3.324   0.840   2.919  0.0483 -0.3894  0.2670
  792SOL    HW1 2432   3.270   0.898   2.972  0.1785 -1.1106  1.2063
  792SOL    HW2 2433   3.304   0.752   2.951  0.2961 -0.8288 -0.7313
  793SOL     OW 2434   0.867   1.586   2.374  0.1832 -0.4496 -0.5764
  793SOL    HW1 2435   0.813   1.541   2.439  1.6772 -0.3022  0.8221
  793SOL    HW2 2436   0.885   1.519   2.307  0.1057 -1.1461  0.0831
  794SOL     OW 2437   1.877   1.773   2.151  0.3011 -0.4285  0.1241
  794SOL    HW1 2438   1.815   1.704   2.175 -1.4703  0.8924 -0.4554
  794SOL    HW2 2439   1.921   1.796   2.233 -0.3652 -1.0285  0.6559
  795SOL     OW 2440   4.721   3.120   3.064 -0.3756  0.8181  0.0264
  795SOL    HW1 2441   4.671   3.133   3.145  1.3463  2.2514  0.9123
  795SOL    HW2 2442   4.811   3.141   3.088  0.1832  1.2484 -2.2747
  796SOL     OW 2443   1.989   4.344   2.091 -0.4880 -0.2167  0.9411
  796SOL    HW1 2444   1.942   4.409   2.038  0.1293  0.5989  1.3659
  796SOL    HW2 2445   2.081   4.354   2.066 -0.1167  0.4961  2.4295
  797SOL     OW 2446   4.215   3.011   4.447  0.1368 -0.0011 -0.0424
  797SOL    HW1 2447   4.270   3.069   4.395 -1.1162  0.1137 -1.3098
  797SOL    HW2 2448   4.197   3.060   4.527 -2.6048  2.3750 -1.9309
  798SOL     OW 2449   2.148   3.796   0.232 -0.1275 -0.4112  0.2564
  798SOL    HW1 2450   2.199   3.715   0.245  0.0296 -0.7335 -1.9527
  798SOL    HW2 2451   2.210   3.857   0.191 -0.9363 -0.0844 -0.5129
  799SOL     OW 2452   2.692   4.231   4.835 -0.1455  0.1935 -0.3899
  799SOL    HW1 2453   2.772   4.283   4.842 -0.4614  0.5976  0.5178
  799SOL    HW2 2454   2.627   4.292   4.800 -0.6991  0.6837  1.3392
  800SOL     OW 2455   2.292   2.628   1.097  0.4771 -0.1806 -0.1247
  800SOL    HW1 2456   2.233   2.669   1.160 -1.7903 -0.0090 -2.1738
  800SOL    HW2 2457   2.253   2.541   1.081  2.2178 -1.0725  0.2712
  801SOL     OW 2458   0.586   2.958   4.615 -0.0188  0.1031  0.2167
  801SOL    HW1 2459   0.647   2.966   4.688 -0.1062  1.5212  0.1724
  801SOL    HW2 2460   0.625   3.011   4.546 -0.5961 -0.1427 -0.3067
  802SOL     OW 2461   2.328   0.177   0.176 -0.0995 -0.1955  0.2979
  802SOL    HW1 2462   2.305   0.213   0.090  2.2816  1.0546  0.1018
  802SOL    HW2 2463   2.283   0.235   0.238 -0.7855 -0.3177 -0.0732
  803SOL     OW 2464   1.746   4.305   3.665  0.6139  0.1911 -1.1745
  803SOL    HW1 2465   1.781   4.227   3.709 -1.8364  0.3014  1.2174
  803SOL    HW2 2466   1.666   4.274   3.622  0.2819  1.1346 -1.2535
  804SOL     OW 2467   3.827   1.106   2.950 -0.8528  0.7902  0.3952
  804SOL    HW1 2468   3.901   1.142   2.901 -0.8273  0.7784  0.4246
  804SOL    HW2 2469   3.764   1.081   2.883  0.0553 -1.2448  0.2176
  805SOL     OW 2470   2.864   4.908   3.673 -0.6264  0.5127 -0.7067
  805SOL    HW1 2471   2.830   4.873   3.591  0.1797  1.9821 -1.7152
  805SOL    HW2 2472   2.909   4.834   3.714 -1.9656 -0.5159 -1.0394
  806SOL     OW 2473   2.362   4.220   4.916  0.0251 -0.3871 -0.4526
  806SOL    HW1 2474   2.401   4.308   4.917  0.3517 -0.5315 -0.1290
  806SOL    HW2 2475   2.347   4.201   4.824  0.1028 -0.0573 -0.5351
  807SOL     OW 2476   0.890   0.936   0.848  0.1693  0.5272 -0.1604
  807SOL    HW1 2477   0.951   0.900   0.912  0.0689 -0.5961 -0.6628
  807SOL    HW2 2478   0.910   0.888   0.767 -2.3277 -0.9778  0.0068
  808SOL     OW 2479   4.483   0.465   2.737 -0.7465 -0.0316  0.1794
  808SOL    HW1 2480   4.426   0.539   2.714 -0.3559 -0.5344 -2.8232
  808SOL    HW2 2481   4.567   0.505   2.758 -1.3154  0.5074  1.5810
  809SOL     OW 2482   2.893   4.382   3.767  0.3744  0.0091  0.3159
  809SOL    HW1 2483   2.847   4.402   3.685 -1.9083  2.2938  1.9883
  809SOL    HW2 2484   2.985   4.370   3.741 -0.1389  1.3939 -2.4752
  810SOL     OW 2485   3.741   4.124   1.677  0.4309 -0.1892  0.3571
  810SOL    HW1 2486   3.798   4.201   1.685 -0.6986  0.6177  0.9196
  810SOL    HW2 2487   3.681   4.130   1.751 -2.8668  1.1130 -2.1547
  811SOL     OW 2488   2.962   4.888   1.023  0.2544  0.2193 -0.4694
  811SOL    HW1 2489   3.001   4.970   0.994  0.1403  0.7993  0.9137
  811SOL    HW2 2490   2.928   4.908   1.111 -2.2223 -0.5301 -1.1835
  812SOL     OW 2491   1.465   3.692   3.345  0.1578 -0.0721  0.0981
  812SOL    HW1 2492   1.552   3.664   3.371  0.5274  1.0405  0.0888
  812SOL    HW2 2493   1.432   3.621   3.290  1.2304 -0.3035 -0.2594
  813SOL     OW 2494   3.279   0.808   1.550  0.7847 -0.0569  0.0641
  813SOL    HW1 2495   3.242   0.726   1.584  0.2924 -0.1629 -0.6981
  813SOL    HW2 2496   3.216   0.875   1.576 -0.1297 -0.2738 -1.4674
  814SOL     OW 2497   3.162   0.586   3.974 -0.0740  0.1176  0.4417
  814SOL    HW1 2498   3.252   0.575   3.943 -0.6348  0.2172 -1.3334
  814SOL    HW2 2499   3.156   0.678   3.998 -0.1885  0.6076 -1.2796
  815SOL     OW 2500   4.256   1.526   3.584 -0.4297  0.1349 -0.4573
  815SOL    HW1 2501   4.187   1.492   3.526 -1.8379  1.5408  0.3092
  815SOL    HW2 2502   4.301   1.592   3.531  0.3120 -0.7247 -0.9300
  816SOL     OW 2503   2.172   1.775   4.227 -0.0952  0.1059  0.4456
  816SOL    HW1 2504   2.107   1.756   4.159  0.2934  0.9428 -0.1757
  816SOL    HW2 2505   2.120   1.788   4.306 -0.8093  1.9103 -0.2717
  817SOL     OW 2506   0.804   1.196   0.845  0.7351  0.3199  0.7067
  817SOL    HW1 2507   0.854   1.114   0.841  0.6691  0.2888  0.4728
  817SOL    HW2 2508   0.871   1.265   0.844  0.7667  0.2936 -0.2044
  818SOL     OW 2509   3.323   4.009   3.276  0.0514  0.1978 -0.3869
  818SOL    HW1 2510   3.419   4.008   3.282  0.0289  0.9780  0.3004
  818SOL    HW2 2511   3.299   4.098   3.300 -0.8777 -0.1238 -0.1020
  819SOL     OW 2512   4.352   0.796   0.819 -0.2647  0.6979 -0.3805
  819SOL    HW1 2513   4.375   0.883   0.849  1.8007  0.0677  0.0351
  819SOL    HW2 2514   4.433   0.762   0.780 -0.1696 -1.9941  1.8363
  820SOL     OW 2515   2.591   1.900   2.544 -0.6645  0.5561  0.3259
  820SOL    HW1 2516   2.655   1.890   2.473  0.6790 -1.5432  1.7099
  820SOL    HW2 2517   2.613   1.983   2.585  0.4899  0.4009  0.0682
  821SOL     OW 2518   0.854   3.433   0.896  0.3013  0.3652 -0.3029
  821SOL    HW1 2519   0.775   3.422   0.843  0.1251  0.4604 -0.0584
  821SOL    HW2 2520   0.898   3.510   0.858  0.0228  0.6150 -0.1219
  822SOL     OW 2521   4.130   2.029   0.061 -0.4411  0.7958 -0.3585
  822SOL    HW1 2522   4.110   2.028   0.154 -0.3429 -0.2473 -0.3405
  822SOL    HW2 2523   4.191   2.102   0.050  0.3870  0.2590  0.5718
  823SOL     OW 2524   0.651   3.803   4.714 -0.2905 -0.1414 -0.1335
  823SOL    HW1 2525   0.622   3.893   4.722 -1.1719 -0.3912 -0.3673
  823SOL    HW2 2526   0.626   3.762   4.797  1.0658  0.0716  0.4029
  824SOL     OW 2527   1.809   1.506   2.764  0.2934  0.2293  0.0737
  824SOL    HW1 2528   1.872   1.498   2.836  0.4857  1.6043  0.0742
  824SOL    HW2 2529   1.726   1.526   2.808 -0.0464 -0.9873  0.0310
  825SOL     OW 2530   2.163   0.017   3.751 -0.1667  0.0787  0.0292
  825SOL    HW1 2531   2.242  -0.016   3.793  0.7806  0.2978 -1.4889
  825SOL    HW2 2532   2.195   0.063   3.673 -1.8672 -2.2962 -2.2649
  826SOL     OW 2533   0.153   2.165   3.267 -0.4633 -0.3757 -0.0413
  826SOL    HW1 2534   0.127   2.188   3.356  0.6640  1.8931 -0.2081
  826SOL    HW2 2535   0.230   2.110   3.277  1.1080  1.7767  0.4827
  827SOL     OW 2536   4.423   3.444   2.747  0.1059  0.3427 -0.5587
  827SOL    HW1 2537   4.505   3.413   2.785  0.3304  0.6046 -0.8156
  827SOL    HW2 2538   4.354   3.400   2.797  0.1114  4.6011  4.0269
  828SOL     OW 2539   1.168   1.766   2.435  0.7445 -0.4423 -0.0585
  828SOL    HW1 2540   1.098   1.719   2.389 -1.0417 -0.7358  2.7064
  828SOL    HW2 2541   1.226   1.698   2.468  1.1188 -0.3394 -0.4980
  829SOL     OW 2542   0.898   3.867   4.605 -0.6823  0.3770 -0.4370
  829SOL    HW1 2543   0.817   3.817   4.617 -0.8107  0.4564 -0.9531
  829SOL    HW2 2544   0.959   3.805   4.565 -0.8066  0.6018 -0.9748
  830SOL     OW 2545   0.060   3.178   4.039 -0.4289  0.2133 -0.0935
  830SOL    HW1 2546  -0.027   3.190   4.002  0.6685 -0.8309 -3.3575
  830SOL    HW2 2547   0.079   3.085   4.025  0.8537  0.2092  1.4228
  831SOL     OW 2548   3.427   0.879   3.681 -0.1988  0.5875 -0.0365
  831SOL    HW1 2549   3.463   0.896   3.769 -0.7713  0.8267  0.1574
  831SOL    HW2 2550   3.468   0.945   3.625  0.4592  0.1954 -0.0290
  832SOL     OW 2551   4.268   2.440   2.105  0.1454 -0.5246  0.5713
  832SOL    HW1 2552   4.255   2.481   2.020  2.4534  2.9972  1.7036
  832SOL    HW2 2553   4.226   2.500   2.167  1.3170 -1.2703  2.1480
  833SOL     OW 2554   3.733   3.451   4.251  0.3193 -0.1010 -0.1223
  833SOL    HW1 2555   3.657   3.448   4.309  0.2513 -0.4526 -0.2286
  833SOL    HW2 2556   3.784   3.374   4.274  0.9859  0.4854  0.4088
  834SOL     OW 2557   3.746   4.171   3.071 -0.7929 -0.6475 -0.1213
  834SOL    HW1 2558   3.825   4.124   3.097 -0.9427  0.0723  1.7214
  834SOL    HW2 2559   3.697   4.107   3.019 -0.2534 -2.0175  0.9937
  835SOL     OW 2560   2.878   1.590   2.016  0.2968  0.4177  0.1625
  835SOL    HW1 2561   2.930   1.510   2.019  0.3274  0.4414  0.2806
  835SOL    HW2 2562   2.799   1.565   1.968  0.1355  0.2135  0.5310
  836SOL     OW 2563   3.900   4.293   2.335  0.2210 -0.1879 -0.6688
  836SOL    HW1 2564   3.858   4.230   2.277 -2.2022 -0.0073  0.7304
  836SOL    HW2 2565   3.835   4.310   2.404  1.5845  2.2316  0.1812
  837SOL     OW 2566   4.066   3.029   0.854 -0.2748 -0.1892 -0.3628
  837SOL    HW1 2567   4.132   2.966   0.826  0.8134  0.9297 -0.4250
  837SOL    HW2 2568   4.113   3.089   0.912 -0.9656  1.2760 -1.2506
  838SOL     OW 2569   0.343   4.844   3.491 -0.5523 -0.3164  0.1864
  838SOL    HW1 2570   0.375   4.827   3.579 -0.0120  0.3843  0.1312
  838SOL    HW2 2571   0.416   4.884   3.445 -0.0150 -2.7886 -1.3253
  839SOL     OW 2572   1.550   4.504   0.132 -0.0528  0.0450 -0.2017
  839SOL    HW1 2573   1.576   4.488   0.223  1.5251 -2.6626 -1.0092
  839SOL    HW2 2574   1.604   4.578   0.105  0.5645 -0.0773  0.6443
  840SOL     OW 2575   0.107   4.113   2.423  0.1260 -0.0453 -0.1381
  840SOL    HW1 2576   0.086   4.149   2.509  1.3655 -2.2279  1.1849
  840SOL    HW2 2577   0.188   4.158   2.397  1.1917 -1.1343  1.1029
  841SOL     OW 2578   4.185   2.781   3.915  0.5367 -0.1038  0.3069
  841SOL    HW1 2579   4.192   2.757   4.008  2.3371  0.8440  0.4717
  841SOL    HW2 2580   4.272   2.816   3.893  0.9259 -2.3954 -2.3541
  842SOL     OW 2581   1.561   4.527   1.803  0.2285  0.4488 -0.2996
  842SOL    HW1 2582   1.579   4.542   1.896  0.5372  1.6523 -0.5390
  842SOL    HW2 2583   1.633   4.472   1.773  0.7499  1.0064 -0.0801
  843SOL     OW 2584   0.489   3.855   0.404 -0.1125  0.0655 -0.3755
  843SOL    HW1 2585   0.501   3.760   0.396 -1.3948 -0.1703  0.2069
  843SOL    HW2 2586   0.578   3.890   0.410  0.3788 -1.0991 -0.5590
  844SOL     OW 2587   0.308   2.703   2.710  0.0282 -0.4375 -0.2995
  844SOL    HW1 2588   0.308   2.792   2.745  2.0108 -0.4429 -0.1544
  844SOL    HW2 2589   0.226   2.695   2.663 -0.6437  1.1157  0.5514
  845SOL     OW 2590   1.765   4.725   3.619  0.2963 -0.3191  0.0865
  845SOL    HW1 2591   1.735   4.733   3.710 -1.7900 -0.7188 -0.5185
  845SOL    HW2 2592   1.780   4.815   3.591 -0.9379 -0.0366  0.2652
  846SOL     OW 2593   4.060   1.988   4.468  0.1176  0.0399 -0.0155
  846SOL    HW1 2594   4.056   1.947   4.554 -2.1404  1.5388  0.6869
  846SOL    HW2 2595   4.078   1.917   4.407  2.1353 -0.9950  1.6957
  847SOL     OW 2596   0.760   0.585   0.882  0.2979 -0.4463 -0.3905
  847SOL    HW1 2597   0.791   0.551   0.798 -0.4550  0.9052 -1.2445
  847SOL    HW2 2598   0.666   0.598   0.870  0.1912 -0.1676  0.6471
  848SOL     OW 2599   2.209   3.212   0.091  0.0414  0.3413  0.9425
  848SOL    HW1 2600   2.304   3.204   0.080 -0.1205  0.1451 -0.6006
  848SOL    HW2 2601   2.172   3.156   0.022 -1.2070 -0.1297  1.9461
  849SOL     OW 2602   2.493   2.480   3.137  0.5779  0.4952 -0.1232
  849SOL    HW1 2603   2.478   2.405   3.079  0.9458  0.8751 -0.7294
  849SOL    HW2 2604   2.421   2.540   3.118 -0.8066 -0.4861  1.7329
  850SOL     OW 2605   3.633   3.572   4.021  0.6901 -0.0846 -0.2045
  850SOL    HW1 2606   3.556   3.526   3.990 -0.8603  2.1296  0.1220
  850SOL    HW2 2607   3.643   3.545   4.112  0.5986 -0.7282 -0.3813
  851SOL     OW 2608   2.338   4.916   4.584 -0.2074  0.1612 -0.2400
  851SOL    HW1 2609   2.411   4.856   4.569 -0.5912 -0.3955  0.0485
  851SOL    HW2 2610   2.354   4.989   4.526  0.5123 -0.0179 -0.2730
  852SOL     OW 2611   4.361   4.740   4.582  0.1723  0.2871  0.2677
  852SOL    HW1 2612   4.410   4.676   4.633 -0.0119  0.8632  1.2020
  852SOL    HW2 2613   4.416   4.757   4.505  1.0305  0.2654  0.8558
  853SOL     OW 2614   3.339   2.142   1.333 -0.0034  0.0535  0.2826
  853SOL    HW1 2615   3.307   2.075   1.273  0.7872 -0.3903  0.3470
  853SOL    HW2 2616   3.302   2.224   1.299  0.8301 -0.1119 -1.1369
  854SOL     OW 2617   3.672   0.483   4.677 -0.6441  0.5951  0.5313
  854SOL    HW1 2618   3.660   0.561   4.730 -0.4518 -0.4190  2.1391
  854SOL    HW2 2619   3.646   0.410   4.734  1.7906 -0.7391  0.0660
  855SOL     OW 2620   0.859   4.321   3.082  0.1078 -0.1147 -0.5782
  855SOL    HW1 2621   0.868   4.393   3.020 -1.0325  0.3542 -0.2147
  855SOL    HW2 2622   0.877   4.242   3.030 -0.7801  0.2738 -1.4958
  856SOL     OW 2623   1.987   0.989   4.409  0.5456 -0.3174  0.4439
  856SOL    HW1 2624   2.036   1.024   4.483  3.3849 -1.7632 -0.5893
  856SOL    HW2 2625   1.984   0.894   4.425  0.4041 -0.5439 -0.8116
  857SOL     OW 2626   1.032   0.838   1.590  0.2344  0.2652 -0.4226
  857SOL    HW1 2627   0.994   0.912   1.639  0.8241 -0.0646  0.5763
  857SOL    HW2 2628   1.127   0.854   1.594  0.4114 -0.8522  0.3439
  858SOL     OW 2629   2.640   4.788   2.755 -0.4623  0.1916  0.1726
  858SOL    HW1 2630   2.678   4.794   2.842 -0.4370  1.6944  0.0713
  858SOL    HW2 2631   2.713   4.805   2.696 -0.8725  1.1759 -0.0741
  859SOL     OW 2632   2.433   0.611   2.175 -0.4820  0.1151 -0.0131
  859SOL    HW1 2633   2.474   0.638   2.257  0.5803  0.6674 -0.6907
  859SOL    HW2 2634   2.465   0.522   2.161  0.1324  0.3762 -0.3064
  860SOL     OW 2635   3.230   3.308   1.737  0.6499 -0.1988 -0.5291
  860SOL    HW1 2636   3.247   3.300   1.643  0.8110  0.9937 -0.6188
  860SOL    HW2 2637   3.162   3.375   1.743  1.1884  0.2853  0.2470
  861SOL     OW 2638   1.693   0.957   4.527 -0.1117 -0.0673  0.2214
  861SOL    HW1 2639   1.602   0.927   4.532  0.1487 -0.7929  0.5311
  861SOL    HW2 2640   1.741   0.883   4.491  0.2458  0.5597 -0.6245
  862SOL     OW 2641   2.091   2.714   4.469 -0.0697  0.0805 -0.4145
  862SOL    HW1 2642   2.141   2.638   4.440  0.5505  0.7545 -1.1847
  862SOL    HW2 2643   2.050   2.747   4.390  0.3601  1.0309 -0.2571
  863SOL     OW 2644   3.119   1.811   4.822  0.0275  0.5838 -0.4277
  863SOL    HW1 2645   3.169   1.864   4.884 -0.7024 -0.0464  0.7403
  863SOL    HW2 2646   3.058   1.873   4.782 -0.1390  0.8312  0.1935
  864SOL     OW 2647   0.843   0.457   1.359 -0.5052  0.5185  0.6761
  864SOL    HW1 2648   0.799   0.435   1.277  0.6591 -2.6422  0.7340
  864SOL    HW2 2649   0.918   0.510   1.332  0.6384 -1.5839 -0.5955
  865SOL     OW 2650   0.947   1.417   2.145 -0.5876  0.4176  0.3643
  865SOL    HW1 2651   1.031   1.371   2.154 -0.8731  0.1472  1.9747
  865SOL    HW2 2652   0.909   1.382   2.065 -1.0559 -2.7008  1.7932
  866SOL     OW 2653   4.757   1.820   4.562  0.3193  0.2581 -0.1378
  866SOL    HW1 2654   4.840   1.867   4.569  0.1968  0.4388  0.1357
  866SOL    HW2 2655   4.692   1.879   4.601 -0.2313  0.8234 -1.8175
  867SOL     OW 2656   1.442   4.209   3.666 -0.6694 -0.4026  0.7060
  867SOL    HW1 2657   1.356   4.170   3.649 -1.2588  0.6483  1.1345
  867SOL    HW2 2658   1.422   4.299   3.692  0.5561 -0.2171  1.0619
  868SOL     OW 2659   4.628   0.200   4.819 -0.5982  0.1200 -0.0297
  868SOL    HW1 2660   4.702   0.231   4.766 -0.2663  0.4061  0.5900
  868SOL    HW2 2661   4.569   0.160   4.756 -0.8236  1.5952 -0.8100
  869SOL     OW 2662   4.863   3.459   2.823  0.4801 -0.4146  0.2425
  869SOL    HW1 2663   4.847   3.540   2.775  1.3989 -0.9867 -1.0984
  869SOL    HW2 2664   4.955   3.465   2.849  0.4154 -0.8151  0.5744
  870SOL     OW 2665   0.609   4.644   2.657  0.6027 -0.5549 -0.2341
  870SOL    HW1 2666   0.513   4.642   2.653  0.5532  1.5736 -1.5454
  870SOL    HW2 2667   0.629   4.632   2.750 -0.9985  0.1136  0.2270
  871SOL     OW 2668   3.592   3.305   0.858 -0.2586  0.1941  0.1584
  871SOL    HW1 2669   3.564   3.214   0.846 -0.7301  0.2377  0.8922
  871SOL    HW2 2670   3.674   3.298   0.907 -0.2448  0.1642  0.1313
  872SOL     OW 2671   4.426   2.509   4.790  0.0207  0.2859  0.5897
  872SOL    HW1 2672   4.473   2.467   4.719  3.2542 -0.0581  2.7289
  872SOL    HW2 2673   4.349   2.453   4.804 -0.3659  0.0242 -2.1180
  873SOL     OW 2674   3.790   1.275   4.357  0.4979  0.2604  0.5391
  873SOL    HW1 2675   3.760   1.333   4.287  0.7567 -0.1973  0.0393
  873SOL    HW2 2676   3.764   1.319   4.438  0.6159  1.0225  0.1653
  874SOL     OW 2677   4.721   4.185   0.680  0.5375  0.0845 -0.6951
  874SOL    HW1 2678   4.723   4.180   0.584 -0.7337  2.1772 -0.8943
  874SOL    HW2 2679   4.650   4.126   0.706  0.1936  0.2963 -1.1392
  875SOL     OW 2680   0.193   1.706   0.242 -0.0926  0.4509  0.8278
  875SOL    HW1 2681   0.176   1.753   0.323 -2.2422 -1.3385  1.5006
  875SOL    HW2 2682   0.108   1.671   0.215  0.7874 -0.0983 -1.5221
  876SOL     OW 2683   1.826   4.147   0.864 -0.2173 -0.6117 -0.0108
  876SOL    HW1 2684   1.805   4.085   0.934 -0.5654 -0.0760  0.3576
  876SOL    HW2 2685   1.922   4.148   0.860 -0.0881  1.1709  2.0947
  877SOL     OW 2686   0.990   4.425   3.284 -0.1149 -0.4203  0.4078
  877SOL    HW1 2687   1.064   4.466   3.238 -1.6256  2.5090  0.3986
  877SOL    HW2 2688   0.924   4.412   3.216 -0.6132 -0.4810  0.8986
  878SOL     OW 2689   1.339   3.432   1.746  0.3568 -0.5352  0.1321
  878SOL    HW1 2690   1.413   3.464   1.797  0.3303 -1.5726  0.8292
  878SOL    HW2 2691   1.377   3.405   1.662  0.6555 -0.4456  0.2385
  879SOL     OW 2692   2.551   3.725   1.168  0.0669  0.3240  0.0107
  879SOL    HW1 2693   2.557   3.630   1.182  0.3848  0.4833  0.9760
  879SOL    HW2 2694   2.625   3.762   1.217 -0.3688  1.1214  0.0793
  880SOL     OW 2695   4.886   2.058   2.180 -0.5843 -0.2787  0.3613
  880SOL    HW1 2696   4.962   2.024   2.134 -1.2454 -0.9459 -0.2693
  880SOL    HW2 2697   4.900   2.153   2.184  0.8971 -0.5106  1.4134
  881SOL     OW 2698   0.973   3.066   3.551 -0.1405  0.0455 -0.0632
  881SOL    HW1 2699   1.003   3.157   3.554 -0.3083  0.0757  1.7580
  881SOL    HW2 2700   0.959   3.042   3.643 -0.9180 -1.5547 -0.5589
  882SOL     OW 2701   2.113   3.441   2.311 -0.5822  0.8535  0.5944
  882SOL    HW1 2702   2.084   3.378   2.246 -1.0279 -0.8379  2.3376
  882SOL    HW2 2703   2.203   3.416   2.332 -0.5540  1.1630  0.8580
  883SOL     OW 2704   1.541   3.071   2.117 -0.2060 -0.3066  0.2157
  883SOL    HW1 2705   1.519   2.998   2.174 -0.5717 -1.5538 -1.4505
  883SOL    HW2 2706   1.463   3.127   2.119 -0.3478 -0.5120  0.6335
  884SOL     OW 2707   3.226   4.073   1.516 -0.1233  0.0405  0.2530
  884SOL    HW1 2708   3.270   4.044   1.596 -0.8451 -1.1147  0.2449
  884SOL    HW2 2709   3.224   4.169   1.524  1.2537  0.0415  0.8375
  885SOL     OW 2710   1.468   0.736   0.484  0.1217  0.3421 -0.4584
  885SOL    HW1 2711   1.425   0.820   0.500 -1.9227 -0.7758  0.3092
  885SOL    HW2 2712   1.462   0.689   0.567  2.4748 -0.0976 -0.4618
  886SOL     OW 2713   2.674   2.979   3.004  0.2223  0.1009 -0.5888
  886SOL    HW1 2714   2.712   2.979   2.916  0.7676 -0.1312 -0.3596
  886SOL    HW2 2715   2.640   3.068   3.016  0.2995  0.1827 -0.9679
  887SOL     OW 2716   3.796   0.899   3.780  0.7332  0.1627 -0.0719
  887SOL    HW1 2717   3.739   0.974   3.765  0.8129  0.5070  1.2972
  887SOL    HW2 2718   3.755   0.828   3.730  0.0504  0.8219 -0.4756
  888SOL     OW 2719   2.597   1.448   0.456  0.4572  0.1204  0.6839
  888SOL    HW1 2720   2.625   1.446   0.364  0.9636 -1.5839  0.8258
  888SOL    HW2 2721   2.529   1.381   0.462  1.0797 -0.4539  1.7150
  889SOL     OW 2722   3.493   4.902   0.045  0.3261 -0.2989  0.5339
  889SOL    HW1 2723   3.564   4.878   0.105 -0.2066 -0.5241  1.0902
  889SOL    HW2 2724   3.534   4.960  -0.019  0.8839  0.0484  1.1930
  890SOL     OW 2725   2.003   2.507   0.859 -0.1493 -0.4458  0.3222
  890SOL    HW1 2726   2.000   2.414   0.835 -0.1132 -0.2243 -0.5776
  890SOL    HW2 2727   1.964   2.511   0.947 -1.3156 -1.1357 -0.1497
  891SOL     OW 2728   4.505   2.240   2.342  0.0337  0.5948 -0.0217
  891SOL    HW1 2729   4.571   2.305   2.366 -1.2719  1.6273  0.8775
  891SOL    HW2 2730   4.550   2.182   2.280  1.2980  2.2221 -0.6952
  892SOL     OW 2731   3.761   2.292   0.175  0.0891  0.3415  0.4215
  892SOL    HW1 2732   3.807   2.277   0.257  0.6389 -2.3294 -0.2631
  892SOL    HW2 2733   3.680   2.242   0.183 -0.5759  1.3039 -0.0962
  893SOL     OW 2734   4.844   1.321   0.838  0.0153 -0.1803  0.6076
  893SOL    HW1 2735   4.763   1.292   0.880 -0.4208  0.6192  0.3259
  893SOL    HW2 2736   4.908   1.326   0.909 -0.9335  2.0070  1.3687
  894SOL     OW 2737   1.730   0.572   2.502 -0.0141 -0.0681  0.4277
  894SOL    HW1 2738   1.822   0.593   2.518  0.0571 -0.7477  1.0025
  894SOL    HW2 2739   1.685   0.600   2.581 -0.4030  0.8075 -0.0933
  895SOL     OW 2740   4.862   4.557   4.580 -0.0940 -0.2654  0.6970
  895SOL    HW1 2741   4.834   4.644   4.609  0.2105  0.0733 -0.0083
  895SOL    HW2 2742   4.903   4.519   4.658  3.3727  1.7576  0.0684
  896SOL     OW 2743   4.854   3.724   2.725  0.0112  0.2316  0.1566
  896SOL    HW1 2744   4.858   3.711   2.630  0.7420  2.9280 -0.2560
  896SOL    HW2 2745   4.772   3.769   2.740 -0.0023  0.0015  0.7811
  897SOL     OW 2746   1.799   3.732   3.156 -0.0204  0.5674 -0.3324
  897SOL    HW1 2747   1.878   3.737   3.101  1.7577 -1.0198  1.8706
  897SOL    HW2 2748   1.832   3.739   3.246 -2.1253 -1.8840  0.7676
  898SOL     OW 2749   3.995   3.997   1.796  0.1808  0.0216  0.2906
  898SOL    HW1 2750   3.901   4.015   1.785  0.0626 -0.6518  0.1644
  898SOL    HW2 2751   4.020   3.953   1.715  0.3866 -0.6728  0.7220
  899SOL     OW 2752   3.381   4.566   0.400 -0.1145 -0.1860  0.1418
  899SOL    HW1 2753   3.405   4.650   0.438 -0.2781  0.2553 -0.7007
  899SOL    HW2 2754   3.317   4.588   0.332  0.6448 -0.8598 -0.8232
  900SOL     OW 2755   4.916   2.380   2.952  0.6114  0.0087 -0.2131
  900SOL    HW1 2756   4.862   2.456   2.970  0.8610  0.2195 -0.3550
  900SOL    HW2 2757   5.000   2.400   2.993  0.7022 -0.1560 -0.3168
  901SOL     OW 2758   1.663   3.531   0.477  0.0404  0.1342  0.2521
  901SOL    HW1 2759   1.678   3.494   0.390 -0.3575  0.8476 -0.1379
  901SOL    HW2 2760   1.680   3.625   0.466 -0.2211  0.2628  0.8896
  902SOL     OW 2761   4.545   1.600   1.250 -0.2558 -0.2652  0.2572
  902SOL    HW1 2762   4.603   1.570   1.319 -0.8168  0.1878  0.9500
  902SOL    HW2 2763   4.477   1.532   1.244 -1.1163  0.4599  1.3143
  903SOL     OW 2764   1.177   0.478   3.863  0.9218 -0.1193  0.2481
  903SOL    HW1 2765   1.104   0.527   3.824  0.5671 -1.5289 -0.9357
  903SOL    HW2 2766   1.196   0.525   3.944  1.3223  2.6318 -1.2970
  904SOL     OW 2767   4.865   2.885   0.927 -0.2784  0.3786 -0.0513
  904SOL    HW1 2768   4.943   2.934   0.951  0.4798 -1.0750  0.6038
  904SOL    HW2 2769   4.895   2.824   0.860 -0.6625 -0.6631  0.6957
  905SOL     OW 2770   3.867   2.088   2.034  0.5282  0.2189 -0.3396
  905SOL    HW1 2771   3.890   1.995   2.038  0.1272  0.1576  0.7479
  905SOL    HW2 2772   3.938   2.127   1.982  1.6860 -0.3948  0.7142
  906SOL     OW 2773   1.980   4.700   2.291  0.3602 -0.1410  0.2924
  906SOL    HW1 2774   1.957   4.722   2.200 -1.3712  1.6103  1.0779
  906SOL    HW2 2775   2.040   4.769   2.318  3.5497 -2.4076 -0.4089
  907SOL     OW 2776   2.923   3.487   3.507 -0.2082 -0.3263 -0.3257
  907SOL    HW1 2777   2.958   3.403   3.537 -1.5549 -1.2851 -1.3138
  907SOL    HW2 2778   2.938   3.486   3.412  2.3358  1.8483 -0.0703
  908SOL     OW 2779   3.658   3.816   2.075  0.0820 -0.3298  0.0378
  908SOL    HW1 2780   3.623   3.743   2.127 -0.4203  0.2509  0.5285
  908SOL    HW2 2781   3.636   3.894   2.126  3.4817  0.0173  1.1931
  909SOL     OW 2782   1.727   4.201   3.359 -0.2385 -0.5160 -0.0883
  909SOL    HW1 2783   1.668   4.149   3.414  0.7310 -0.3012  1.2146
  909SOL    HW2 2784   1.811   4.155   3.365 -0.1867 -0.6990 -1.7457
  910SOL     OW 2785   2.422   4.846   0.636  0.1736  0.1544  0.2023
  910SOL    HW1 2786   2.511   4.858   0.668 -0.0289 -0.2606  0.9431
  910SOL    HW2 2787   2.371   4.915   0.678 -0.1464 -0.5632  1.0166
  911SOL     OW 2788   2.537   0.765   1.491  0.0191 -0.0603  0.3315
  911SOL    HW1 2789   2.500   0.732   1.573 -0.4328 -2.2363 -0.6771
  911SOL    HW2 2790   2.530   0.691   1.430 -1.0618  1.9542 -2.1429
  912SOL     OW 2791   0.582   2.799   2.085 -0.1398 -0.5535 -0.6992
  912SOL    HW1 2792   0.581   2.791   2.180 -1.1437 -1.3672 -0.7715
  912SOL    HW2 2793   0.585   2.894   2.069 -0.9182 -0.3769  0.1415
  913SOL     OW 2794   1.925   0.702   1.566  0.4560  0.3416 -0.4161
  913SOL    HW1 2795   1.896   0.634   1.506 -0.5104  1.2038 -0.9593
  913SOL    HW2 2796   2.015   0.721   1.540  1.0920 -1.3628  0.3621
  914SOL     OW 2797   1.472   3.919   0.721  0.9565  0.5897 -0.1222
  914SOL    HW1 2798   1.543   3.855   0.728  1.2846  0.6210 -2.4784
  914SOL    HW2 2799   1.516   4.004   0.727  0.9577  0.6006 -0.2762
  915SOL     OW 2800   1.795   4.486   4.158 -0.0252 -0.7396  0.6511
  915SOL    HW1 2801   1.778   4.442   4.242  0.5592 -0.1441  1.0895
  915SOL    HW2 2802   1.770   4.577   4.173  1.1152 -0.3899  0.5345
  916SOL     OW 2803   4.196   2.533   4.608  0.0793  0.2184 -0.0691
  916SOL    HW1 2804   4.256   2.502   4.540 -0.0509  0.4248 -0.2765
  916SOL    HW2 2805   4.115   2.484   4.592  0.6217 -1.1380  1.0841
  917SOL     OW 2806   0.222   4.280   3.491  0.4384 -0.2753 -0.3974
  917SOL    HW1 2807   0.235   4.197   3.447  0.4114 -0.5351  0.0818
  917SOL    HW2 2808   0.209   4.257   3.583 -0.9164  0.1376 -0.4534
  918SOL     OW 2809   4.254   3.065   2.158 -0.1828 -0.7563  0.3277
  918SOL    HW1 2810   4.202   3.135   2.120  0.8197 -1.0654 -1.7076
  918SOL    HW2 2811   4.210   3.045   2.241 -1.9025  0.5792 -0.2156
  919SOL     OW 2812   1.312   3.596   4.066  0.3321 -0.4794 -0.3269
  919SOL    HW1 2813   1.371   3.659   4.026  0.6409 -1.1169 -0.8943
  919SOL    HW2 2814   1.361   3.560   4.140  0.4487 -0.6043 -0.4641
  920SOL     OW 2815   0.538   0.439   0.668  0.2989 -0.0761 -0.0067
  920SOL    HW1 2816   0.552   0.459   0.575  1.0996 -2.4849 -0.4820
  920SOL    HW2 2817   0.508   0.522   0.706  1.5781  1.4439 -2.0580
  921SOL     OW 2818   3.047   0.049   3.479  0.4038  0.3521 -0.1872
  921SOL    HW1 2819   2.969  -0.005   3.491 -0.9574  2.3984  0.7610
  921SOL    HW2 2820   3.084   0.019   3.396 -1.7600 -0.2698 -1.0011
  922SOL     OW 2821   4.847   4.820   3.865 -0.1536 -0.1592  0.8120
  922SOL    HW1 2822   4.854   4.727   3.887  0.3676 -0.1436  0.7275
  922SOL    HW2 2823   4.881   4.865   3.942  2.2528 -0.1175 -0.1955
  923SOL     OW 2824   3.684   4.686   1.272  0.4571  0.0338  0.1376
  923SOL    HW1 2825   3.597   4.715   1.244 -0.2200 -1.9962  0.0264
  923SOL    HW2 2826   3.688   4.709   1.365 -0.6586 -0.8358  0.4271
  924SOL     OW 2827   2.808   1.490   0.840  0.2594 -0.1732 -0.1507
  924SOL    HW1 2828   2.733   1.522   0.790 -0.2796 -1.4029 -0.1392
  924SOL    HW2 2829   2.821   1.556   0.908 -0.0235  0.6789 -0.8906
  925SOL     OW 2830   4.019   1.669   4.566 -0.3054 -0.1481  0.0272
  925SOL    HW1 2831   3.973   1.676   4.483 -0.5156  1.7436  0.2603
  925SOL    HW2 2832   3.962   1.711   4.630  0.7955  0.3853  0.7096
  926SOL     OW 2833   2.312   2.886   2.037 -0.0111  0.1248  0.0105
  926SOL    HW1 2834   2.313   2.878   1.942 -0.4428  0.2541 -0.0086
  926SOL    HW2 2835   2.380   2.826   2.068  2.6176  2.6184 -0.5473
  927SOL     OW 2836   4.477   2.243   2.776  0.1031  0.4897 -0.7072
  927SOL    HW1 2837   4.443   2.260   2.864  1.2536 -0.6549 -0.0283
  927SOL    HW2 2838   4.409   2.190   2.734  1.4990 -3.0722  1.1431
  928SOL     OW 2839   0.661   2.630   0.361 -0.2136  0.2405  0.6841
  928SOL    HW1 2840   0.726   2.608   0.295 -1.3302 -0.7669 -0.1350
  928SOL    HW2 2841   0.589   2.669   0.312 -1.1097 -0.6235  1.2630
  929SOL     OW 2842   0.524   1.266   2.523  0.4091 -0.1127 -0.0070
  929SOL    HW1 2843   0.557   1.178   2.542  1.7430  0.3113 -0.2199
  929SOL    HW2 2844   0.442   1.252   2.477 -0.9704 -1.1971  2.6169
  930SOL     OW 2845   1.264   0.259   3.747 -0.5057 -0.4998  0.0634
  930SOL    HW1 2846   1.234   0.340   3.787  0.8980  0.0535  0.0218
  930SOL    HW2 2847   1.206   0.246   3.672 -0.2393  0.8886 -0.3997
  931SOL     OW 2848   1.406   2.275   3.823  0.1229  0.2049  0.4040
  931SOL    HW1 2849   1.380   2.335   3.753 -0.9076 -0.3214  0.3105
  931SOL    HW2 2850   1.438   2.197   3.776  0.0336  0.1003  0.5170
  932SOL     OW 2851   0.481   0.726   0.751 -0.4007  0.1122 -0.4515
  932SOL    HW1 2852   0.545   0.784   0.793  1.4811 -1.6624 -0.7170
  932SOL    HW2 2853   0.464   0.767   0.666  0.4180  0.6056 -0.3925
  933SOL     OW 2854   4.205   3.678   0.088 -0.2566  0.4349  0.1594
  933SOL    HW1 2855   4.155   3.760   0.080  0.3571  0.8281  0.3087
  933SOL    HW2 2856   4.138   3.610   0.097 -0.8007  0.8144 -0.8320
  934SOL     OW 2857   1.678   0.135   0.242  0.5590  0.0594  0.1437
  934SOL    HW1 2858   1.661   0.227   0.220 -1.4776 -0.3038  0.0326
  934SOL    HW2 2859   1.773   0.124   0.228  0.4636  1.5084 -2.2127
  935SOL     OW 2860   4.882   0.357   3.413  0.5062 -0.0617 -0.0041
  935SOL    HW1 2861   4.900   0.267   3.438  1.7563  0.5137  1.3521
  935SOL    HW2 2862   4.942   0.409   3.467 -0.5938  1.6136 -0.3086
  936SOL     OW 2863   3.217   0.589   2.969 -0.0333  0.2833  0.1009
  936SOL    HW1 2864   3.133   0.565   2.929 -0.1789 -0.3198  0.7580
  936SOL    HW2 2865   3.282   0.555   2.908 -0.2552 -0.2846  0.1778
  937SOL     OW 2866   2.082   1.908   3.461  0.0934 -0.4278  0.3493
  937SOL    HW1 2867   1.991   1.937   3.455 -0.4316 -1.9333  0.6378
  937SOL    HW2 2868   2.110   1.894   3.371  0.5528  1.4503  0.1590
  938SOL     OW 2869   4.412   3.204   2.978  0.0565  0.1094  0.1869
  938SOL    HW1 2870   4.495   3.235   2.942  0.4000  0.7314  1.4815
  938SOL    HW2 2871   4.347   3.265   2.944  0.3643  0.6408  0.5555
  939SOL     OW 2872   2.822   4.041   1.470  0.4345 -0.3535 -0.4265
  939SOL    HW1 2873   2.822   4.133   1.445  2.0583 -0.0051  0.6714
  939SOL    HW2 2874   2.806   4.041   1.564 -0.7038 -1.2917 -0.5949
  940SOL     OW 2875   4.653   4.126   4.503  0.6653  0.0590 -0.1592
  940SOL    HW1 2876   4.724   4.155   4.446  1.0864  0.3124  0.4811
  940SOL    HW2 2877   4.576   4.123   4.446  0.8279  1.4158 -0.4834
  941SOL     OW 2878   0.218   2.892   0.359  0.1962  0.2305  0.3540
  941SOL    HW1 2879   0.156   2.836   0.313  0.2698  0.8929 -0.5891
  941SOL    HW2 2880   0.262   2.834   0.422  1.0636 -1.0405 -1.3357
  942SOL     OW 2881   3.161   2.593   3.277 -0.1564  0.0731  0.1795
  942SOL    HW1 2882   3.164   2.517   3.217 -0.1858  0.8412 -0.8262
  942SOL    HW2 2883   3.175   2.668   3.220  1.5031  0.7367  1.3682
  943SOL     OW 2884   1.607   3.645   2.486  0.8168  0.0753 -0.1447
  943SOL    HW1 2885   1.679   3.699   2.519  0.7842 -0.7558  1.3693
  943SOL    HW2 2886   1.554   3.625   2.564 -0.8183  0.2847 -1.1394
  944SOL     OW 2887   3.676   2.264   3.129 -0.0043  0.1698 -0.3830
  944SOL    HW1 2888   3.707   2.349   3.160  2.2583 -0.9386  0.6079
  944SOL    HW2 2889   3.755   2.221   3.096 -0.7822 -2.1550  0.6161
  945SOL     OW 2890   3.311   0.633   2.578  0.4071 -0.6843 -0.1194
  945SOL    HW1 2891   3.370   0.604   2.648  2.8446 -0.6397 -2.0133
  945SOL    HW2 2892   3.295   0.554   2.526  1.4310 -0.0930 -1.3918
  946SOL     OW 2893   2.923   2.767   1.666  0.3688 -0.0954 -0.7698
  946SOL    HW1 2894   2.986   2.764   1.739 -1.0232  0.6182  0.5179
  946SOL    HW2 2895   2.942   2.688   1.615  1.3872 -0.6212  0.3691
  947SOL     OW 2896   4.805   4.280   4.331 -0.4493  0.6218 -0.0076
  947SOL    HW1 2897   4.819   4.277   4.236 -1.4889  0.0811 -0.1582
  947SOL    HW2 2898   4.878   4.333   4.364  0.3576  0.1783 -1.0170
  948SOL     OW 2899   4.820   0.824   3.127  0.4466  1.0069 -0.5700
  948SOL    HW1 2900   4.862   0.877   3.195  0.0804  0.5722 -0.0006
  948SOL    HW2 2901   4.857   0.736   3.139 -0.2660  0.7283 -0.3618
  949SOL     OW 2902   3.961   3.798   0.614 -0.1951 -0.1014  0.0971
  949SOL    HW1 2903   3.872   3.803   0.579  0.0171  0.7252 -0.3478
  949SOL    HW2 2904   3.950   3.797   0.709 -0.6866 -0.2310  0.0412
  950SOL     OW 2905   4.077   1.455   0.665 -0.3233 -0.1181  0.0516
  950SOL    HW1 2906   3.987   1.448   0.631 -0.0892 -0.3793 -0.5341
  950SOL    HW2 2907   4.115   1.528   0.616  0.3973 -1.2536 -1.1744
  951SOL     OW 2908   4.090   1.006   2.105 -0.0822  0.0951 -0.0632
  951SOL    HW1 2909   4.134   0.954   2.172  0.2713  0.2879 -0.1404
  951SOL    HW2 2910   4.080   0.946   2.031 -0.4192 -0.1000  0.1386
  952SOL     OW 2911   2.047   3.876   2.111 -0.1292  0.1295 -0.9076
  952SOL    HW1 2912   2.125   3.857   2.059 -0.1488 -2.5234 -0.1308
  952SOL    HW2 2913   2.065   3.960   2.152  1.1138  0.8844 -2.8775
  953SOL     OW 2914   0.873   0.058   2.814  0.2457  0.2439  0.2750
  953SOL    HW1 2915   0.813   0.016   2.751  0.4061 -0.8839  0.8454
  953SOL    HW2 2916   0.901   0.138   2.770 -1.4942  0.6901 -0.0989
  954SOL     OW 2917   2.702   2.148   4.805 -1.0136  0.5911 -0.1980
  954SOL    HW1 2918   2.693   2.243   4.796 -0.1084  0.5550 -1.8096
  954SOL    HW2 2919   2.720   2.135   4.899  0.0367  2.1278 -0.1449
  955SOL     OW 2920   0.434   4.360   0.730  0.2720 -0.0095  0.5303
  955SOL    HW1 2921   0.485   4.279   0.727 -0.6412 -0.5668 -0.8375
  955SOL    HW2 2922   0.392   4.365   0.644 -1.0288  1.0365  1.1900
  956SOL     OW 2923   4.499   2.804   4.322 -0.1828  0.5823 -0.0435
  956SOL    HW1 2924   4.537   2.821   4.409  1.3194 -0.7876 -0.3826
  956SOL    HW2 2925   4.406   2.791   4.339  0.1658 -0.2384  1.4701
  957SOL     OW 2926   0.194   3.789   1.720 -0.6570 -0.2465  0.0658
  957SOL    HW1 2927   0.192   3.697   1.748 -0.9879  0.7912  3.9046
  957SOL    HW2 2928   0.280   3.800   1.680 -0.2326 -2.0072  0.4044
  958SOL     OW 2929   1.985   0.530   3.315 -0.7417 -0.3636  0.4468
  958SOL    HW1 2930   1.946   0.444   3.328  0.4502 -1.0685 -0.4167
  958SOL    HW2 2931   1.912   0.591   3.325 -1.6046 -1.4547  1.1156
  959SOL     OW 2932   2.997   2.155   1.883  0.0784 -0.0159  0.4411
  959SOL    HW1 2933   2.953   2.102   1.950  0.2794  0.1835  0.7334
  959SOL    HW2 2934   3.090   2.150   1.906  0.3216 -1.1928 -0.7064
  960SOL     OW 2935   1.465   0.807   4.615  0.0360 -0.5486 -0.3853
  960SOL    HW1 2936   1.419   0.777   4.693 -0.4039  0.1740 -0.3577
  960SOL    HW2 2937   1.538   0.746   4.605  0.4128 -0.3318  0.8940
  961SOL     OW 2938   4.861   0.301   0.171 -0.2122  0.1053  0.0358
  961SOL    HW1 2939   4.847   0.231   0.107 -0.5512  0.4099 -0.2235
  961SOL    HW2 2940   4.780   0.304   0.222 -0.0173 -0.0065  0.3593
  962SOL     OW 2941   1.848   0.252   4.576  0.0247 -0.4486  0.2920
  962SOL    HW1 2942   1.858   0.259   4.481 -0.5684  0.7026  0.3023
  962SOL    HW2 2943   1.894   0.171   4.599  1.0518 -0.2138 -0.8388
  963SOL     OW 2944   0.889   0.523   4.306  0.2451  0.4347 -0.0584
  963SOL    HW1 2945   0.909   0.431   4.326  2.1964  1.0330  1.0020
  963SOL    HW2 2946   0.914   0.570   4.386 -0.9294  1.8758 -0.5142
  964SOL     OW 2947   2.371   4.554   1.492  0.3129 -0.6335  0.3874
  964SOL    HW1 2948   2.389   4.556   1.398  1.5655  0.5263  0.6150
  964SOL    HW2 2949   2.406   4.470   1.521 -0.2018 -1.0622 -0.1767
  965SOL     OW 2950   2.536   0.150   3.642  0.1694  0.6590  0.5925
  965SOL    HW1 2951   2.557   0.057   3.649 -0.9106  0.4235  0.9639
  965SOL    HW2 2952   2.602   0.194   3.694  0.4530  0.0644  0.7445
  966SOL     OW 2953   1.691   0.776   0.746  0.2110 -0.2173 -0.4270
  966SOL    HW1 2954   1.677   0.845   0.681 -1.5609  0.6437  0.7617
  966SOL    HW2 2955   1.760   0.811   0.803  1.1999 -0.6248 -1.3530
  967SOL     OW 2956   0.644   2.354   2.591  0.2494  0.0114  0.2488
  967SOL    HW1 2957   0.708   2.302   2.639  0.3250  0.0731  0.2173
  967SOL    HW2 2958   0.579   2.292   2.561 -0.6604  0.1756  1.7812
  968SOL     OW 2959   1.828   4.778   3.284  0.1241 -0.5288 -0.6904
  968SOL    HW1 2960   1.916   4.752   3.313  0.2437  0.3977 -0.1739
  968SOL    HW2 2961   1.844   4.850   3.224 -0.3011  0.0378 -0.1399
  969SOL     OW 2962   1.193   3.292   0.597  0.0201 -0.0673  0.0271
  969SOL    HW1 2963   1.238   3.342   0.528  0.3826 -0.2759  0.1091
  969SOL    HW2 2964   1.211   3.341   0.677 -0.1637  0.0203  0.0152
  970SOL     OW 2965   0.600   3.322   4.440  0.3591 -0.2902  0.9194
  970SOL    HW1 2966   0.529   3.271   4.402  1.4985 -0.4746 -1.1162
  970SOL    HW2 2967   0.564   3.410   4.452 -1.3964 -1.2487  3.7690
  971SOL     OW 2968   2.620   3.236   4.198 -0.6389 -0.3693  0.2826
  971SOL    HW1 2969   2.558   3.230   4.125 -0.0035  0.5853 -0.3580
  971SOL    HW2 2970   2.570   3.204   4.274 -1.3344 -1.3040 -0.5350
  972SOL     OW 2971   0.538   3.554   4.621 -0.7057  0.2633  0.1204
  972SOL    HW1 2972   0.564   3.645   4.635 -0.9592  0.8680 -2.6723
  972SOL    HW2 2973   0.460   3.559   4.566 -0.7703 -1.6444 -0.0459
  973SOL     OW 2974   3.947   1.663   3.423 -0.2087 -0.0225  0.4404
  973SOL    HW1 2975   3.955   1.683   3.516  0.9958  0.2595  0.3035
  973SOL    HW2 2976   3.983   1.574   3.415 -1.1611 -0.4054  0.3709
  974SOL     OW 2977   3.715   0.243   2.829 -0.1365 -0.3591 -0.5497
  974SOL    HW1 2978   3.731   0.333   2.857 -0.4673 -0.6726  0.7462
  974SOL    HW2 2979   3.669   0.203   2.903  0.7930 -1.8420 -0.7290
  975SOL     OW 2980   1.027   4.518   1.630 -0.1941 -0.1067 -0.5273
  975SOL    HW1 2981   0.985   4.449   1.578  1.3323 -1.8447  0.3990
  975SOL    HW2 2982   1.120   4.510   1.609  0.1381  0.9018  0.4693
  976SOL     OW 2983   0.141   3.526   2.569 -0.0499  0.1870  0.0957
  976SOL    HW1 2984   0.142   3.528   2.665  1.9243  1.1751  0.1192
  976SOL    HW2 2985   0.153   3.434   2.546  0.9598  0.1068  0.8496
  977SOL     OW 2986   2.497   2.987   0.216  0.0359  0.0772  0.2166
  977SOL    HW1 2987   2.523   3.078   0.232  1.4287 -0.1856 -0.4411
  977SOL    HW2 2988   2.579   2.940   0.203 -0.7166 -0.4774 -3.6368
  978SOL     OW 2989   1.177   1.822   3.412 -0.5408  0.0193  0.0862
  978SOL    HW1 2990   1.270   1.846   3.414 -0.8734  1.3525  1.3483
  978SOL    HW2 2991   1.141   1.869   3.337 -0.5609  1.1442  0.7644
  979SOL     OW 2992   4.788   1.004   3.994  0.0818  0.0034  0.1178
  979SOL    HW1 2993   4.808   1.083   3.944 -0.9442  0.8611  1.0007
  979SOL    HW2 2994   4.823   1.021   4.081  1.3705 -1.2507 -0.1261
  980SOL     OW 2995   2.833   2.194   0.329 -0.3768 -0.4440 -0.5304
  980SOL    HW1 2996   2.918   2.235   0.313 -0.4487  1.0643  2.2465
  980SOL    HW2 2997   2.770   2.251   0.284 -0.0777 -0.2423 -0.6975
  981SOL     OW 2998   3.339   2.428   1.604 -0.2710  0.2820  0.4456
  981SOL    HW1 2999   3.285   2.350   1.617  0.9514 -0.7630 -0.5349
  981SOL    HW2 3000   3.389   2.437   1.686  0.3603 -0.6126  0.1760
  982SOL     OW 3001   1.623   2.966   1.855 -0.3353 -0.1325 -0.0247
  982SOL    HW1 3002   1.636   2.877   1.887 -0.6915 -0.0980  0.2185
  982SOL    HW2 3003   1.612   3.019   1.934  1.0008  0.3225 -0.1139
  983SOL     OW 3004   3.512   3.131   3.920 -0.0418  0.2100  0.4423
  983SOL    HW1 3005   3.598   3.106   3.954  0.4795  0.8992 -0.3299
  983SOL    HW2 3006   3.456   3.134   3.997  0.8081  0.4850  1.0709
  984SOL     OW 3007   1.488   1.788   0.116  0.1038  0.1210 -0.2945
  984SOL    HW1 3008   1.574   1.769   0.155 -0.5342 -0.4696  0.9030
  984SOL    HW2 3009   1.450   1.702   0.100 -0.7395  0.3660  0.3223
  985SOL     OW 3010   0.167   0.351   4.665  0.0162  0.4669 -0.4294
  985SOL    HW1 3011   0.184   0.316   4.753 -1.7062  2.4225  0.7670
  985SOL    HW2 3012   0.253   0.349   4.622  1.1242  0.3253  1.6373
  986SOL     OW 3013   1.962   0.242   0.234  0.1884 -0.4066 -0.2497
  986SOL    HW1 3014   1.894   0.298   0.198  0.6932  0.3892 -0.0131
  986SOL    HW2 3015   2.034   0.302   0.254 -0.5021 -0.5491  3.2730
  987SOL     OW 3016   1.446   1.665   0.471  0.0439 -0.4163  0.1474
  987SOL    HW1 3017   1.464   1.675   0.378  0.1411  0.2539  0.2333
  987SOL    HW2 3018   1.352   1.680   0.480  0.2490  0.8762  0.3250
  988SOL     OW 3019   2.798   0.566   4.189 -0.1851  0.3006 -0.0933
  988SOL    HW1 3020   2.738   0.524   4.250  1.1957 -1.4088  0.1647
  988SOL    HW2 3021   2.885   0.552   4.227  0.5013  1.5594 -1.1087
  989SOL     OW 3022   1.838   0.081   0.935  0.3718 -0.1398 -0.0422
  989SOL    HW1 3023   1.796   0.091   0.850 -1.4884 -1.0038  0.7309
  989SOL    HW2 3024   1.932   0.090   0.917 -0.0110  0.0026 -2.1181
  990SOL     OW 3025   3.236   1.369   4.175  0.2507 -0.4881  0.9096
  990SOL    HW1 3026   3.292   1.292   4.164 -0.4146 -0.7851 -0.7170
  990SOL    HW2 3027   3.166   1.340   4.233  0.1414 -1.0585  0.5027
  991SOL     OW 3028   2.596   1.534   3.525 -0.1823  0.1601 -0.5611
  991SOL    HW1 3029   2.554   1.474   3.463 -1.6463 -0.4818  0.9672
  991SOL    HW2 3030   2.614   1.480   3.602 -1.1720  1.5777  0.7176
  992SOL     OW 3031   4.783   0.478   4.161  0.1387  0.1986 -0.2373
  992SOL    HW1 3032   4.809   0.405   4.217 -1.0892 -0.6544 -0.7407
  992SOL    HW2 3033   4.826   0.460   4.077 -2.1953 -1.4398 -1.2050
  993SOL     OW 3034   4.083   1.278   3.945  0.0995  0.1242 -0.2075
  993SOL    HW1 3035   4.088   1.328   3.863  1.5017 -1.8540 -1.4156
  993SOL    HW2 3036   3.990   1.278   3.967 -0.1849  1.5501 -1.2254
  994SOL     OW 3037   2.832   3.129   3.224 -0.2133 -0.0419  0.6443
  994SOL    HW1 3038   2.785   3.118   3.142 -1.2603  2.0248  0.9151
  994SOL    HW2 3039   2.778   3.082   3.289  1.1883 -2.6552  0.0814
  995SOL     OW 3040   1.913   3.638   1.337  0.2547 -0.3786  0.1616
  995SOL    HW1 3041   1.936   3.563   1.390 -0.0864 -0.6703 -0.0964
  995SOL    HW2 3042   1.885   3.705   1.400  1.4208 -0.1439  0.4534
  996SOL     OW 3043   4.139   0.455   1.765 -0.2626 -0.3132  0.3989
  996SOL    HW1 3044   4.045   0.457   1.744 -0.0225 -1.5289 -0.8944
  996SOL    HW2 3045   4.183   0.457   1.681  0.9343  0.8347  1.0053
  997SOL     OW 3046   0.126   1.898   2.085 -0.6042  0.4282 -0.0410
  997SOL    HW1 3047   0.059   1.871   2.022  0.8984 -0.7759 -1.1972
  997SOL    HW2 3048   0.208   1.867   2.047  0.3986 -0.0586  2.3655
  998SOL     OW 3049   2.903   4.438   1.063 -0.7066 -0.0038  0.2769
  998SOL    HW1 3050   2.958   4.437   0.985  1.1052 -0.8721  1.4903
  998SOL    HW2 3051   2.909   4.349   1.098 -0.9470  0.5378  1.7623
  999SOL     OW 3052   0.601   2.717   2.351  0.4723  0.3389  0.1410
  999SOL    HW1 3053   0.614   2.756   2.437 -1.7624  1.4765  0.0304
  999SOL    HW2 3054   0.559   2.633   2.369  2.2243 -0.5733  0.2152
 1000SOL     OW 3055   4.135   0.102   0.325  0.1353  0.2168  0.0319
 1000SOL    HW1 3056   4.080   0.133   0.397 -1.6894  1.6265 -1.8376
 1000SOL    HW2 3057   4.139   0.007   0.336 -1.5574  0.2218  1.0296
 1001SOL     OW 3058   2.215   1.824   0.739  0.4130  0.2588  0.5222
 1001SOL    HW1 3059   2.257   1.748   0.700  1.3028  0.4492  1.0823
 1001SOL    HW2 3060   2.234   1.817   0.832  0.3139  1.0435  0.6082
 1002SOL     OW 3061   0.040   4.369   0.831 -0.1698  0.1579  0.2537
 1002SOL    HW1 3062   0.050   4.282   0.870  1.5092  0.0102 -0.4159
 1002SOL    HW2 3063   0.049   4.355   0.737 -1.2701  0.8989  0.0059
 1003SOL     OW 3064   1.840   0.614   1.884  0.1497 -0.8128  0.2401
 1003SOL    HW1 3065   1.775   0.647   1.946  0.3162 -0.6538  0.3295
 1003SOL    HW2 3066   1.909   0.680   1.883 -1.4148  1.0116 -2.7362
 1004SOL     OW 3067   3.296   3.849   0.150 -0.0737 -0.5534 -0.0843
 1004SOL    HW1 3068   3.201   3.841   0.144 -0.0620 -1.5428  0.7264
 1004SOL    HW2 3069   3.311   3.928   0.201 -0.4608 -0.4557 -0.1203
 1005SOL     OW 3070   3.880   4.716   1.093  0.2025 -0.0921  0.3480
 1005SOL    HW1 3071   3.930   4.751   1.167  1.0862 -0.9628  0.1805
 1005SOL    HW2 3072   3.794   4.697   1.130  0.4257  0.1098  0.9934
 1006SOL     OW 3073   1.823   3.609   4.449 -0.0837  0.6703  0.2690
 1006SOL    HW1 3074   1.797   3.698   4.474  3.4269  2.0766 -0.4675
 1006SOL    HW2 3075   1.829   3.612   4.353  0.6283 -0.1954  0.2779
 1007SOL     OW 3076   0.304   4.530   4.412  0.4621 -0.2171 -0.1363
 1007SOL    HW1 3077   0.369   4.598   4.397  0.3549  0.4551  2.0825
 1007SOL    HW2 3078   0.340   4.478   4.484 -0.8831 -0.6013  0.2843
 1008SOL     OW 3079   3.917   3.522   4.674 -0.1827 -0.2672  0.0905
 1008SOL    HW1 3080   3.847   3.528   4.739  0.3648 -1.0771  0.7684
 1008SOL    HW2 3081   3.883   3.571   4.599 -0.1085  2.2317  1.5757
 1009SOL     OW 3082   2.823   2.514   4.682  0.3880  0.2604  0.1631
 1009SOL    HW1 3083   2.819   2.532   4.776  0.3681  1.5822 -0.0719
 1009SOL    HW2 3084   2.916   2.509   4.661  0.3925 -1.5434  0.5026
 1010SOL     OW 3085   1.128   1.922   1.641 -0.5453  0.3122  0.2028
 1010SOL    HW1 3086   1.177   1.949   1.563  1.5570 -1.1145  0.9609
 1010SOL    HW2 3087   1.071   1.851   1.610 -2.0306  1.7734 -0.6109
 1011SOL     OW 3088   3.119   1.115   3.760 -0.0669 -0.2964 -0.1388
 1011SOL    HW1 3089   3.036   1.084   3.796  0.6783 -0.9806  1.0722
 1011SOL    HW2 3090   3.152   1.042   3.708 -0.0010 -0.1997 -0.2323
 1012SOL     OW 3091   2.887   0.995   3.146 -0.2272 -0.0734 -0.3773
 1012SOL    HW1 3092   2.870   1.004   3.052 -1.2244  0.3913 -0.1642
 1012SOL    HW2 3093   2.822   0.931   3.176  1.4911 -1.9181 -0.3734
 1013SOL     OW 3094   0.802   2.982   0.352  0.2253 -0.0705  0.2360
 1013SOL    HW1 3095   0.712   2.960   0.372  0.1007  1.1804  1.1690
 1013SOL    HW2 3096   0.809   3.076   0.371  2.0796 -0.4281  1.6056
 1014SOL     OW 3097   1.062   3.624   2.464  0.7666  0.4305 -0.4433
 1014SOL    HW1 3098   1.129   3.657   2.524  0.0206  1.5336 -0.2009
 1014SOL    HW2 3099   1.088   3.658   2.378  0.3611  1.1300 -0.2984
 1015SOL     OW 3100   0.637   1.949   3.330  0.1260  0.3678 -0.6896
 1015SOL    HW1 3101   0.649   2.005   3.254 -1.7758  0.4504 -0.9838
 1015SOL    HW2 3102   0.664   1.862   3.302  0.9454  0.6932 -0.9352
 1016SOL     OW 3103   0.743   2.450   1.744 -0.6391 -0.0013 -0.2399
 1016SOL    HW1 3104   0.802   2.518   1.712 -1.0175  0.6183  0.3639
 1016SOL    HW2 3105   0.663   2.497   1.770 -1.3672 -0.8084 -0.9410
 1017SOL     OW 3106   1.686   3.450   0.218  0.3131  0.0037 -0.1068
 1017SOL    HW1 3107   1.755   3.472   0.155 -0.2865  0.0203 -0.7663
 1017SOL    HW2 3108   1.654   3.365   0.190  1.1899 -0.8006  1.1979
 1018SOL     OW 3109   1.563   0.383   2.687  0.4736 -0.4708  0.4161
 1018SOL    HW1 3110   1.481   0.428   2.670  0.0373 -1.9831 -2.0327
 1018SOL    HW2 3111   1.612   0.443   2.744 -1.7247  1.0811  0.8082
 1019SOL     OW 3112   3.633   3.956   4.025 -0.3182 -0.0570 -0.1674
 1019SOL    HW1 3113   3.678   4.037   4.049 -0.4266  0.0287 -0.2509
 1019SOL    HW2 3114   3.600   3.921   4.108  2.2095 -1.5355  0.2906
 1020SOL     OW 3115   3.284   4.862   3.465  0.1594 -0.4427 -0.0667
 1020SOL    HW1 3116   3.369   4.898   3.442 -0.0983  0.5149  0.4277
 1020SOL    HW2 3117   3.304   4.776   3.503  1.1594  0.7798  2.3925
 1021SOL     OW 3118   4.837   0.041   1.595  0.4988  1.0109  0.3625
 1021SOL    HW1 3119   4.869   0.115   1.647 -0.9880  1.7582  0.2620
 1021SOL    HW2 3120   4.743   0.056   1.586  0.0355 -1.1792  0.7869
 1022SOL     OW 3121   0.375   4.130   2.743  0.5419 -0.5035 -0.4909
 1022SOL    HW1 3122   0.282   4.109   2.737  0.0990  0.7253  1.1405
 1022SOL    HW2 3123   0.387   4.204   2.684  0.1989  0.0960  0.1753
 1023SOL     OW 3124   4.590   3.158   1.825 -0.1870  0.2932  0.0704
 1023SOL    HW1 3125   4.682   3.137   1.842 -0.2974  0.6698  1.1670
 1023SOL    HW2 3126   4.562   3.206   1.902 -1.6758 -0.9169  0.3192
 1024SOL     OW 3127   2.056   3.477   0.261 -0.3304 -0.3954  0.1336
 1024SOL    HW1 3128   2.042   3.479   0.356  0.5084  1.5093  0.2530
 1024SOL    HW2 3129   2.138   3.428   0.251  1.0138  1.6415  0.6505
 1025SOL     OW 3130   1.073   3.166   4.445  0.5183 -0.1682  0.1766
 1025SOL    HW1 3131   1.023   3.122   4.514  0.2866 -0.6773 -0.3091
 1025SOL    HW2 3132   1.123   3.095   4.404 -0.7376 -0.2103 -1.3805
 1026SOL     OW 3133   0.890   1.496   1.576 -0.2305 -0.3350  0.3394
 1026SOL    HW1 3134   0.796   1.475   1.580 -0.2452 -1.0427 -2.0519
 1026SOL    HW2 3135   0.933   1.411   1.571  0.3699  0.0122 -0.7124
 1027SOL     OW 3136   3.003   4.034   2.050  0.1283  0.0557 -0.2731
 1027SOL    HW1 3137   3.057   3.987   2.114  1.4311  1.2968 -0.4237
 1027SOL    HW2 3138   2.979   3.967   1.986  0.5628 -0.7559  0.3900
 1028SOL     OW 3139   1.152   4.190   2.591 -0.5217  0.3178  0.2061
 1028SOL    HW1 3140   1.111   4.218   2.673 -0.1265  0.4605  0.3586
 1028SOL    HW2 3141   1.141   4.095   2.590  0.1499  0.2182  0.8123
 1029SOL     OW 3142   0.341   0.132   4.482  0.5107  0.6853  0.1124
 1029SOL    HW1 3143   0.414   0.155   4.540  0.5303  0.6105  0.1188
 1029SOL    HW2 3144   0.370   0.051   4.439 -0.6102 -0.8403  2.0487
 1030SOL     OW 3145   0.218   3.880   0.783 -0.7856 -0.6707  0.8619
 1030SOL    HW1 3146   0.242   3.961   0.829 -1.1611  0.8627 -1.4532
 1030SOL    HW2 3147   0.159   3.909   0.714  0.0260 -2.7555 -0.8067
 1031SOL     OW 3148   1.554   2.571   4.727  0.4061 -0.4116 -0.4778
 1031SOL    HW1 3149   1.470   2.589   4.685  0.2830  0.2722  0.0451
 1031SOL    HW2 3150   1.589   2.496   4.679 -0.1099 -0.1717 -1.2537
 1032SOL     OW 3151   1.556   2.295   0.205  0.7806 -0.3541 -0.1160
 1032SOL    HW1 3152   1.592   2.219   0.158  1.8872  0.0378  0.0647
 1032SOL    HW2 3153   1.530   2.356   0.137  0.9468 -0.4264 -0.2444
 1033SOL     OW 3154   4.202   4.702   4.114 -0.3672 -0.5638  0.1805
 1033SOL    HW1 3155   4.161   4.787   4.134 -0.4221 -0.7712  0.9930
 1033SOL    HW2 3156   4.160   4.641   4.175 -1.1279 -1.4010 -1.1273
 1034SOL     OW 3157   3.556   1.822   2.706 -0.0527 -0.1678  0.4656
 1034SOL    HW1 3158   3.508   1.811   2.624  0.8733  0.6099 -0.2060
 1034SOL    HW2 3159   3.647   1.806   2.683  0.0280 -1.7648  1.7541
 1035SOL     OW 3160   1.137   4.980   0.873  0.6195 -0.7552 -0.2342
 1035SOL    HW1 3161   1.129   4.918   0.946  2.6913 -2.6131 -1.4492
 1035SOL    HW2 3162   1.048   4.987   0.838 -0.0163 -1.5334  1.1363
 1036SOL     OW 3163   3.679   2.792   2.503  0.7379 -0.1944  0.2817
 1036SOL    HW1 3164   3.713   2.731   2.569 -0.0581  0.7920  1.6517
 1036SOL    HW2 3165   3.633   2.859   2.554  0.1999  0.6681 -1.2843
 1037SOL     OW 3166   3.812   2.347   3.547  0.4387  0.1575 -0.3708
 1037SOL    HW1 3167   3.881   2.301   3.595 -0.8890 -0.8788  0.6714
 1037SOL    HW2 3168   3.732   2.298   3.569 -0.9424  2.4744  0.1217
 1038SOL     OW 3169   4.820   3.820   0.739  0.3733 -0.4381 -0.0269
 1038SOL    HW1 3170   4.736   3.799   0.698  0.1331  1.3636 -0.5437
 1038SOL    HW2 3171   4.886   3.796   0.673  0.0641  1.0732 -0.9343
 1039SOL     OW 3172   4.039   1.022   4.099  0.2992  0.0437  0.2016
 1039SOL    HW1 3173   4.040   1.087   4.029 -1.9046 -0.1407 -0.0465
 1039SOL    HW2 3174   4.096   1.059   4.167  1.7371  0.6423 -1.2656
 1040SOL     OW 3175   1.346   2.908   0.363  0.0307  0.0152 -0.2740
 1040SOL    HW1 3176   1.282   2.930   0.430  1.0673  1.3192  0.3404
 1040SOL    HW2 3177   1.424   2.883   0.412  0.0902 -1.3078 -1.0111
 1041SOL     OW 3178   4.095   4.293   3.165 -0.7510  0.3810 -0.4583
 1041SOL    HW1 3179   4.042   4.213   3.160  1.5796 -1.3181  0.3637
 1041SOL    HW2 3180   4.159   4.284   3.095  1.2068  0.1831  1.2736
 1042SOL     OW 3181   1.792   3.042   3.468 -0.3986 -0.3823  0.3740
 1042SOL    HW1 3182   1.791   3.030   3.373 -0.6457  1.3197  0.1270
 1042SOL    HW2 3183   1.882   3.024   3.494  0.2817  1.3948 -0.5519
 1043SOL     OW 3184   4.604   0.700   4.579 -0.1585  0.3997 -0.0903
 1043SOL    HW1 3185   4.651   0.705   4.496 -0.8065  0.8368 -0.4420
 1043SOL    HW2 3186   4.578   0.790   4.598  0.7900  0.4592  1.0801
 1044SOL     OW 3187   4.203   1.213   2.512 -0.6841  0.2622  0.4095
 1044SOL    HW1 3188   4.240   1.189   2.427  1.3357  1.4398  0.8710
 1044SOL    HW2 3189   4.261   1.283   2.544 -3.5348  2.5074  1.1138
 1045SOL     OW 3190   0.708   4.963   1.104 -0.5815 -0.0659 -0.2326
 1045SOL    HW1 3191   0.786   4.917   1.135 -0.5548 -0.7639 -1.2842
 1045SOL    HW2 3192   0.642   4.895   1.095 -1.1059  0.4078 -0.0177
 1046SOL     OW 3193   4.065   1.760   2.203 -0.1948 -0.3146  0.2117
 1046SOL    HW1 3194   4.159   1.765   2.222 -0.1755  1.1039 -0.1471
 1046SOL    HW2 3195   4.043   1.668   2.216  1.2161 -0.6460  0.4341
 1047SOL     OW 3196   4.653   4.786   4.975 -0.3847 -0.0129  0.4844
 1047SOL    HW1 3197   4.560   4.791   4.956 -0.8507  1.0960  2.6461
 1047SOL    HW2 3198   4.696   4.788   4.890 -2.2813  1.1588 -0.5048
 1048SOL     OW 3199   3.811   0.434   3.776  0.1959 -0.1667  0.2980
 1048SOL    HW1 3200   3.792   0.350   3.733 -0.4888  0.0194  0.2276
 1048SOL    HW2 3201   3.809   0.415   3.869  0.6542 -0.3583  0.2685
 1049SOL     OW 3202   2.016   2.510   3.432  0.3199 -0.0845 -0.8698
 1049SOL    HW1 3203   2.054   2.551   3.509  3.3789 -1.1478 -1.6601
 1049SOL    HW2 3204   1.992   2.422   3.461 -4.1923  1.2733  0.2567
 1050SOL     OW 3205   2.991   0.192   3.125 -0.0720  0.6461  0.0869
 1050SOL    HW1 3206   2.907   0.148   3.140  0.3810 -0.2311  0.1312
 1050SOL    HW2 3207   2.970   0.285   3.125 -0.8361  0.4938  1.4136
 1051SOL     OW 3208   3.040   3.141   4.847  0.0489  0.1895 -0.7364
 1051SOL    HW1 3209   2.986   3.066   4.871  0.2377  0.4572  0.6141
 1051SOL    HW2 3210   2.986   3.217   4.870  1.0143  0.4594  0.7400
 1052SOL     OW 3211   4.747   2.959   4.261 -0.0703  0.0253  0.2405
 1052SOL    HW1 3212   4.823   2.902   4.275 -0.0290 -0.1135 -0.4974
 1052SOL    HW2 3213   4.672   2.906   4.290  0.0290 -0.1702  0.1414
 1053SOL     OW 3214   0.012   4.636   1.883  0.0522  0.0317 -0.3329
 1053SOL    HW1 3215   0.012   4.546   1.851  0.9797 -0.5127  1.0848
 1053SOL    HW2 3216  -0.008   4.689   1.806  1.6375 -1.2246 -1.6869
 1054SOL     OW 3217   3.307   0.454   1.755  0.7750 -0.1170  0.0577
 1054SOL    HW1 3218   3.324   0.397   1.680  1.6597 -0.0830  0.2241
 1054SOL    HW2 3219   3.379   0.517   1.755 -0.0940  0.9049 -0.0134
 1055SOL     OW 3220   4.407   2.190   1.008 -0.0118 -0.3328 -0.1019
 1055SOL    HW1 3221   4.330   2.247   1.012 -0.0124 -0.1612 -1.7041
 1055SOL    HW2 3222   4.481   2.249   1.018 -0.0577 -0.3718  0.5073
 1056SOL     OW 3223   2.925   2.757   4.535 -0.9775  0.3197 -0.0538
 1056SOL    HW1 3224   2.863   2.810   4.584 -2.1498 -1.3957  0.4191
 1056SOL    HW2 3225   2.870   2.696   4.486  0.2680  0.3648 -1.5836
 1057SOL     OW 3226   1.031   4.305   3.989  0.1230  0.0349 -0.2918
 1057SOL    HW1 3227   0.949   4.278   4.031 -0.4399  0.4773 -1.0847
 1057SOL    HW2 3228   1.029   4.264   3.903  0.8764 -0.1766 -0.2169
 1058SOL     OW 3229   0.831   1.922   4.539  0.7773 -0.7142 -0.8688
 1058SOL    HW1 3230   0.755   1.869   4.515  0.2861 -0.4406  0.0238
 1058SOL    HW2 3231   0.800   2.012   4.534  1.1321 -0.5859 -0.7972
 1059SOL     OW 3232   2.625   2.750   1.746 -0.1213  0.5988  0.1634
 1059SOL    HW1 3233   2.707   2.722   1.706 -0.1266  1.2270 -0.3068
 1059SOL    HW2 3234   2.639   2.738   1.840  1.2260  2.4280  0.2626
 1060SOL     OW 3235   2.788   3.515   1.829  0.8389 -0.1755  0.0548
 1060SOL    HW1 3236   2.830   3.429   1.837  0.3489 -0.3684  0.6576
 1060SOL    HW2 3237   2.695   3.497   1.838  0.7822  0.5142  1.0286
 1061SOL     OW 3238   2.275   0.521   0.915 -0.3901  0.0754 -0.3200
 1061SOL    HW1 3239   2.364   0.517   0.950  0.0885  0.2755 -1.4708
 1061SOL    HW2 3240   2.279   0.589   0.848 -1.1310 -0.6890 -1.1514
 1062SOL     OW 3241   2.548   2.400   4.857  0.0206 -0.5425 -0.2422
 1062SOL    HW1 3242   2.559   2.495   4.858 -0.7819 -0.3159 -2.9434
 1062SOL    HW2 3243   2.453   2.388   4.849  0.2166 -1.4389 -1.7123
 1063SOL     OW 3244   3.592   4.016   3.247 -0.3275  0.2153  0.2813
 1063SOL    HW1 3245   3.604   3.921   3.246  0.3842  0.2823 -1.4170
 1063SOL    HW2 3246   3.648   4.048   3.176 -0.7723  1.8818  0.6351
 1064SOL     OW 3247   2.601   0.643   3.562  0.0810 -0.2412 -0.5902
 1064SOL    HW1 3248   2.611   0.561   3.515  0.1320 -0.1275 -0.7775
 1064SOL    HW2 3249   2.551   0.699   3.503 -0.7165 -0.4258 -0.1140
 1065SOL     OW 3250   3.081   2.726   0.527  0.0618 -0.1653  0.0240
 1065SOL    HW1 3251   3.084   2.783   0.604  0.8671 -1.3813  0.9351
 1065SOL    HW2 3252   3.041   2.645   0.558 -3.9668  0.8286 -1.9566
 1066SOL     OW 3253   0.802   1.850   0.225 -1.0555 -0.4653  0.0126
 1066SOL    HW1 3254   0.778   1.935   0.260 -0.3462 -0.5099  0.6120
 1066SOL    HW2 3255   0.898   1.849   0.226 -1.0212 -0.6725 -1.4313
 1067SOL     OW 3256   1.856   3.082   4.375  0.5694  0.4996 -0.0333
 1067SOL    HW1 3257   1.911   3.016   4.334  2.2949  1.3544  0.7842
 1067SOL    HW2 3258   1.843   3.050   4.465 -1.2500 -0.2308 -0.5068
 1068SOL     OW 3259   4.728   4.505   0.039 -0.2741  0.0374 -0.4481
 1068SOL    HW1 3260   4.722   4.601   0.033 -2.8232 -0.0063  0.3388
 1068SOL    HW2 3261   4.661   4.472  -0.020 -1.8647 -1.1199  1.8493
 1069SOL     OW 3262   4.312   4.259   2.981 -0.4100 -0.1923  0.7452
 1069SOL    HW1 3263   4.407   4.257   2.993 -0.1941  1.3077 -0.4915
 1069SOL    HW2 3264   4.294   4.346   2.948 -2.2563 -0.4074  1.1003
 1070SOL     OW 3265   0.386   1.322   0.643  0.4317  0.1370 -0.9160
 1070SOL    HW1 3266   0.403   1.413   0.666 -1.1286 -0.2744  2.4359
 1070SOL    HW2 3267   0.292   1.318   0.629  0.0330 -1.3739  1.6900
 1071SOL     OW 3268   4.874   3.904   4.663  0.0279  0.1188 -0.2304
 1071SOL    HW1 3269   4.816   3.979   4.644  0.4512  0.4673 -0.1581
 1071SOL    HW2 3270   4.840   3.869   4.745 -0.6797 -0.2779 -0.6795
 1072SOL     OW 3271   4.529   4.080   4.076  0.1874 -0.4977 -0.2965
 1072SOL    HW1 3272   4.507   4.115   3.989  0.2939  0.7461  0.1594
 1072SOL    HW2 3273   4.582   4.002   4.057  1.3220  0.4890 -1.3642
 1073SOL     OW 3274   2.606   2.204   0.849  0.5603  0.0035  0.0284
 1073SOL    HW1 3275   2.557   2.232   0.772 -1.0751  2.0363  1.6696
 1073SOL    HW2 3276   2.565   2.122   0.875  0.0762  0.1123 -0.3700
 1074SOL     OW 3277   0.217   1.758   4.944  0.1852 -0.0741  0.0262
 1074SOL    HW1 3278   0.215   1.757   5.040  1.8004  0.8311  0.1035
 1074SOL    HW2 3279   0.205   1.667   4.918 -0.7671 -0.2631  1.0634
 1075SOL     OW 3280   0.653   1.129   1.522  0.1620  0.0299 -0.4107
 1075SOL    HW1 3281   0.712   1.095   1.454  0.4586  0.1266 -0.2042
 1075SOL    HW2 3282   0.652   1.060   1.589  0.2021  0.1180 -0.3192
 1076SOL     OW 3283   2.170   0.774   1.484  0.2764  0.1384  0.1218
 1076SOL    HW1 3284   2.236   0.716   1.522 -0.4883 -1.3645 -0.7427
 1076SOL    HW2 3285   2.220   0.846   1.447  1.1501  0.7959  2.4492
 1077SOL     OW 3286   3.802   2.872   1.597 -0.1571 -0.4901  0.2859
 1077SOL    HW1 3287   3.790   2.951   1.544 -0.9068 -0.0547  1.0801
 1077SOL    HW2 3288   3.807   2.801   1.533 -0.5942  0.0734 -0.3909
 1078SOL     OW 3289   2.091   4.116   0.822 -0.1792 -0.1541  0.5702
 1078SOL    HW1 3290   2.094   4.125   0.727 -1.7394  0.6875  0.5676
 1078SOL    HW2 3291   2.114   4.025   0.838 -0.1846 -0.3898 -0.6448
 1079SOL     OW 3292   3.765   2.118   2.291 -0.1912 -0.2055 -0.5676
 1079SOL    HW1 3293   3.808   2.105   2.206 -2.8822 -2.2023 -1.8028
 1079SOL    HW2 3294   3.805   2.052   2.348  1.4295  0.9499 -0.3124
 1080SOL     OW 3295   3.558   3.942   3.728 -0.5550 -0.6907  0.2945
 1080SOL    HW1 3296   3.640   3.897   3.746  0.4614  1.1261  0.3992
 1080SOL    HW2 3297   3.512   3.885   3.667  0.7815 -1.7213  0.2081
 1081SOL     OW 3298   4.192   1.732   0.553  0.7111 -0.5340  0.4764
 1081SOL    HW1 3299   4.279   1.747   0.515 -0.1038  0.7383 -1.0267
 1081SOL    HW2 3300   4.175   1.810   0.606 -0.3513  0.2891 -0.9921
 1082SOL     OW 3301   1.437   1.838   2.598 -0.2823 -0.0837  0.2523
 1082SOL    HW1 3302   1.521   1.793   2.593 -1.4143 -2.1875 -1.2519
 1082SOL    HW2 3303   1.404   1.818   2.686 -0.2606 -1.2935  0.0005
 1083SOL     OW 3304   3.540   0.295   2.617  0.4119  0.2013 -0.1150
 1083SOL    HW1 3305   3.599   0.254   2.680 -1.4128  0.6705  2.0796
 1083SOL    HW2 3306   3.553   0.248   2.536  3.0290 -0.3370  0.5491
 1084SOL     OW 3307   3.992   3.473   0.165  0.3224 -0.5208  0.3066
 1084SOL    HW1 3308   3.946   3.501   0.244 -0.7978 -2.2334  0.3206
 1084SOL    HW2 3309   3.924   3.435   0.110  0.8651  1.6359 -2.0529
 1085SOL     OW 3310   1.820   1.861   1.001  0.4481  0.0121 -0.4063
 1085SOL    HW1 3311   1.765   1.937   0.984  0.2113 -0.2642 -0.9219
 1085SOL    HW2 3312   1.811   1.807   0.922 -0.3628 -1.1332  0.4457
 1086SOL     OW 3313   2.877   1.267   3.370  0.0097 -0.3335 -0.3539
 1086SOL    HW1 3314   2.843   1.297   3.286 -2.2309 -0.1776  0.5213
 1086SOL    HW2 3315   2.912   1.346   3.411  3.0525 -0.7539 -1.8813
 1087SOL     OW 3316   4.181   0.808   3.116  0.1350  0.1671 -0.4677
 1087SOL    HW1 3317   4.134   0.874   3.167  0.8715  0.4215 -0.0992
 1087SOL    HW2 3318   4.113   0.748   3.086 -0.4023  0.4084  0.2320
 1088SOL     OW 3319   1.503   2.087   2.513 -0.1050  0.4853 -0.2375
 1088SOL    HW1 3320   1.591   2.055   2.497 -0.7451 -0.6872 -1.6559
 1088SOL    HW2 3321   1.451   2.008   2.527 -1.0887  1.0927 -0.3522
 1089SOL     OW 3322   1.485   2.957   4.807  0.4611 -0.2839 -0.3140
 1089SOL    HW1 3323   1.499   2.888   4.872  0.6590 -0.7280 -0.8163
 1089SOL    HW2 3324   1.428   3.020   4.851  0.9838 -0.3370  0.4518
 1090SOL     OW 3325   4.258   1.945   3.579 -0.0709  0.3305 -0.3448
 1090SOL    HW1 3326   4.295   1.944   3.667 -0.6413  0.0555 -0.1010
 1090SOL    HW2 3327   4.314   1.887   3.528 -0.1526 -0.0663  0.0133
 1091SOL     OW 3328   2.981   3.996   3.658  0.0870  0.0316  0.2728
 1091SOL    HW1 3329   2.983   3.927   3.592  0.2345 -0.0692  0.3835
 1091SOL    HW2 3330   2.940   3.956   3.734  3.7005 -1.1862  1.7501
 1092SOL     OW 3331   0.538   4.960   3.339  0.2837 -0.2775 -0.4102
 1092SOL    HW1 3332   0.512   5.034   3.285 -0.4331 -0.2480 -0.0294
 1092SOL    HW2 3333   0.608   4.917   3.288 -0.2675 -0.1649 -1.2857
 1093SOL     OW 3334   2.349   4.157   3.455  0.5415 -0.0982 -0.3498
 1093SOL    HW1 3335   2.417   4.206   3.503  1.9907 -1.4418 -0.9182
 1093SOL    HW2 3336   2.335   4.208   3.375  0.2597  0.6255  0.1474
 1094SOL     OW 3337   0.857   4.291   1.842 -0.5121  0.4781  0.4058
 1094SOL    HW1 3338   0.902   4.375   1.850 -0.7828  0.8317 -1.2805
 1094SOL    HW2 3339   0.784   4.309   1.782 -1.2687 -0.7085  0.9288
 1095SOL     OW 3340   3.532   0.581   1.832 -0.5000  0.1704  0.5934
 1095SOL    HW1 3341   3.550   0.622   1.916  0.3817  0.8933  0.0703
 1095SOL    HW2 3342   3.552   0.488   1.846 -0.5704  0.2518  1.2401
 1096SOL     OW 3343   4.908   2.885   0.575  0.0655 -0.5908  0.5849
 1096SOL    HW1 3344   4.981   2.858   0.520 -1.7557  0.1144 -2.4254
 1096SOL    HW2 3345   4.894   2.977   0.552 -2.0097 -0.8284  0.6903
 1097SOL     OW 3346   0.801   4.757   3.634 -0.4667 -0.2601 -0.1982
 1097SOL    HW1 3347   0.815   4.710   3.551 -2.7702 -1.2314 -0.1022
 1097SOL    HW2 3348   0.821   4.693   3.702 -1.4463 -0.4185 -0.0468
 1098SOL     OW 3349   4.763   4.496   0.689  0.4774 -0.2710 -0.0580
 1098SOL    HW1 3350   4.801   4.478   0.775 -1.0186 -1.9233  0.3109
 1098SOL    HW2 3351   4.745   4.410   0.651  1.6142  0.4065 -2.3019
 1099SOL     OW 3352   4.113   2.594   3.724 -0.3139  0.3782  0.5857
 1099SOL    HW1 3353   4.145   2.655   3.790  1.3535 -0.0062  0.1641
 1099SOL    HW2 3354   4.096   2.648   3.647 -0.6793  0.5762  0.8000
 1100SOL     OW 3355   1.564   2.109   2.835 -0.3546 -0.0814  0.1036
 1100SOL    HW1 3356   1.568   2.200   2.865  0.3790 -0.1209  0.1341
 1100SOL    HW2 3357   1.577   2.114   2.741 -0.1117 -0.1700  0.1318
 1101SOL     OW 3358   2.438   2.673   1.343 -0.8223  0.0363 -0.2609
 1101SOL    HW1 3359   2.530   2.693   1.361 -0.2754 -1.6389 -0.9673
 1101SOL    HW2 3360   2.421   2.712   1.257 -0.5000 -0.3830 -0.5200
 1102SOL     OW 3361   1.102   4.306   0.373 -0.1747 -0.2844 -0.4168
 1102SOL    HW1 3362   1.131   4.278   0.459  3.9198  0.3759 -1.3572
 1102SOL    HW2 3363   1.130   4.398   0.367 -0.4050 -0.2912 -2.3876
 1103SOL     OW 3364   4.641   0.607   3.434  0.4340 -0.2295 -0.4618
 1103SOL    HW1 3365   4.611   0.524   3.398  0.4478 -0.3975 -0.0855
 1103SOL    HW2 3366   4.602   0.673   3.377 -0.2808 -0.4614 -0.2557
 1104SOL     OW 3367   4.080   2.320   2.707  0.3874 -0.1327 -0.3105
 1104SOL    HW1 3368   4.129   2.400   2.724 -1.1624  0.8615 -0.3230
 1104SOL    HW2 3369   4.079   2.312   2.612  0.4703 -0.1154 -0.3127
 1105SOL     OW 3370   1.595   3.308   0.724 -0.3019  0.2085 -0.4155
 1105SOL    HW1 3371   1.567   3.272   0.640  1.0961  1.7797 -1.6382
 1105SOL    HW2 3372   1.606   3.402   0.707  1.2561  0.3655  1.1607
 1106SOL     OW 3373   4.372   0.652   3.940  0.2221 -0.5357  0.0823
 1106SOL    HW1 3374   4.287   0.612   3.922  0.6281 -1.2670 -0.2582
 1106SOL    HW2 3375   4.364   0.687   4.029 -0.6926  0.1285 -0.2473
 1107SOL     OW 3376   1.191   4.350   4.508 -0.3906  0.5667 -0.4423
 1107SOL    HW1 3377   1.251   4.360   4.582 -1.0571 -0.6152  0.3002
 1107SOL    HW2 3378   1.220   4.414   4.444 -0.2398  2.1644  1.1377
 1108SOL     OW 3379   2.709   0.316   0.484 -0.0702 -0.1957 -0.2766
 1108SOL    HW1 3380   2.661   0.284   0.561  0.1169  0.4689  0.1222
 1108SOL    HW2 3381   2.801   0.304   0.508 -0.0165 -0.6483 -0.6893
 1109SOL     OW 3382   3.073   2.215   0.668 -0.3102  0.3940  0.1658
 1109SOL    HW1 3383   2.994   2.206   0.722 -0.0430 -0.0195  0.4857
 1109SOL    HW2 3384   3.135   2.152   0.705  1.1128  2.4948  1.6137
 1110SOL     OW 3385   4.575   0.598   1.128 -0.0979 -0.5364  0.3509
 1110SOL    HW1 3386   4.499   0.603   1.071  0.5466 -1.0286 -0.5751
 1110SOL    HW2 3387   4.561   0.668   1.192  0.0412  1.3469 -1.5319
 1111SOL     OW 3388   0.726   1.407   4.441  0.4755 -0.7889  0.1651
 1111SOL    HW1 3389   0.733   1.357   4.359 -0.3012 -1.6752  0.6193
 1111SOL    HW2 3390   0.776   1.487   4.424 -0.0245 -0.7583 -1.3216
 1112SOL     OW 3391   1.403   0.382   0.411 -0.4541 -0.0802  0.4904
 1112SOL    HW1 3392   1.416   0.427   0.495  2.0728 -0.3976  0.3544
 1112SOL    HW2 3393   1.389   0.291   0.435  0.3707 -0.1876  0.5777
 1113SOL     OW 3394   4.527   4.198   3.830  0.7049  0.2169 -0.1944
 1113SOL    HW1 3395   4.505   4.291   3.827  1.2943  0.3441 -0.8428
 1113SOL    HW2 3396   4.467   4.158   3.767  1.3162  0.3531 -0.8758
 1114SOL     OW 3397   3.344   0.421   2.396 -0.0314  0.5090 -0.1918
 1114SOL    HW1 3398   3.337   0.328   2.416  0.4908 -0.0183 -2.2414
 1114SOL    HW2 3399   3.434   0.432   2.366 -0.7933  1.1050 -2.4586
 1115SOL     OW 3400   1.568   4.134   4.724 -0.3890  0.2631 -0.5020
 1115SOL    HW1 3401   1.611   4.166   4.804  0.3185  1.8046 -1.4555
 1115SOL    HW2 3402   1.478   4.116   4.751  0.1785 -0.6340  0.9561
 1116SOL     OW 3403   2.353   0.179   1.201 -0.3761  0.2540  0.2193
 1116SOL    HW1 3404   2.308   0.254   1.240  0.2372  1.1445 -0.7281
 1116SOL    HW2 3405   2.299   0.156   1.125 -0.3177  0.0463  0.2416
 1117SOL     OW 3406   4.476   1.828   0.640  0.2913 -0.0716  0.2456
 1117SOL    HW1 3407   4.530   1.907   0.636  0.7115 -0.4004 -0.8895
 1117SOL    HW2 3408   4.477   1.803   0.733  1.0777  0.6153  0.4342
 1118SOL     OW 3409   2.145   3.237   3.580  0.5073 -0.1154 -0.0676
 1118SOL    HW1 3410   2.195   3.177   3.525 -0.3021 -2.3666  1.4964
 1118SOL    HW2 3411   2.200   3.315   3.587  1.4182 -0.4535 -2.5388
 1119SOL     OW 3412   2.404   4.221   0.747 -0.0863 -0.6174  0.4498
 1119SOL    HW1 3413   2.317   4.237   0.711  0.7858  1.9471 -0.8152
 1119SOL    HW2 3414   2.457   4.294   0.715  2.6436 -2.2572  0.8709
 1120SOL     OW 3415   3.463   0.915   0.282  0.1619 -0.7010 -0.3598
 1120SOL    HW1 3416   3.504   0.930   0.197  1.2016  0.4373  0.3072
 1120SOL    HW2 3417   3.536   0.911   0.343 -0.5556 -1.7562  0.4580
 1121SOL     OW 3418   3.851   2.435   2.876 -0.5147  0.0466  0.2884
 1121SOL    HW1 3419   3.925   2.449   2.817 -0.4033  0.6586  0.5649
 1121SOL    HW2 3420   3.854   2.342   2.897 -2.4931 -1.0402 -3.2763
 1122SOL     OW 3421   0.534   2.592   1.910 -0.1299 -0.0404 -0.2840
 1122SOL    HW1 3422   0.547   2.648   1.987  1.4619 -1.4944  0.5711
 1122SOL    HW2 3423   0.538   2.503   1.944  1.0365 -0.7307 -2.1075
 1123SOL     OW 3424   3.165   3.475   0.011  0.0920  0.5934 -0.3440
 1123SOL    HW1 3425   3.091   3.519  -0.030  0.3065  0.7661 -0.5531
 1123SOL    HW2 3426   3.134   3.450   0.098 -0.7832 -0.9100 -1.0601
 1124SOL     OW 3427   0.648   2.274   1.012  0.3996 -0.0830  0.6098
 1124SOL    HW1 3428   0.614   2.184   1.014  0.1834 -0.0425 -0.4966
 1124SOL    HW2 3429   0.649   2.297   0.919  3.1073  0.0566  0.5966
 1125SOL     OW 3430   4.936   3.822   3.711  0.8415 -0.1430  0.2876
 1125SOL    HW1 3431   4.914   3.733   3.737  1.7212 -0.2162  0.8489
 1125SOL    HW2 3432   5.001   3.850   3.776  3.0529 -0.2816 -1.7472
 1126SOL     OW 3433   1.011   0.141   4.245 -0.7487 -0.2039 -0.0588
 1126SOL    HW1 3434   0.926   0.115   4.211 -1.2757  0.5513  0.6280
 1126SOL    HW2 3435   0.990   0.202   4.316  0.4008  1.2344 -0.9123
 1127SOL     OW 3436   3.762   4.525   4.203  0.5311 -0.2456 -0.2088
 1127SOL    HW1 3437   3.775   4.492   4.291  0.7180  1.0053  0.2539
 1127SOL    HW2 3438   3.671   4.554   4.201  0.5302 -0.2596 -0.4177
 1128SOL     OW 3439   0.264   4.536   4.808  0.1358  0.3834  0.7296
 1128SOL    HW1 3440   0.359   4.542   4.796 -0.0325  0.1593 -0.8342
 1128SOL    HW2 3441   0.254   4.490   4.892  1.4218 -0.6917  0.3314
 1129SOL     OW 3442   4.577   1.434   4.347 -0.2922  0.0417  0.1383
 1129SOL    HW1 3443   4.637   1.505   4.371 -1.8533  1.4184  0.2088
 1129SOL    HW2 3444   4.588   1.368   4.415 -0.3221  1.1982  1.3029
 1130SOL     OW 3445   1.754   4.919   1.994 -0.4052  0.4406 -0.0279
 1130SOL    HW1 3446   1.814   4.847   2.010 -0.8644  0.1492  0.4137
 1130SOL    HW2 3447   1.739   4.957   2.081 -0.4792  0.8131 -0.2025
 1131SOL     OW 3448   3.091   2.531   2.089 -0.0860  0.6008  0.7491
 1131SOL    HW1 3449   3.086   2.542   2.184 -0.2711 -0.9510  0.9500
 1131SOL    HW2 3450   3.182   2.506   2.071 -0.6097 -1.6028  0.8674
 1132SOL     OW 3451   0.936   3.175   2.062  0.1908  0.0016  0.6641
 1132SOL    HW1 3452   1.018   3.224   2.069 -1.0468  2.4554 -0.8243
 1132SOL    HW2 3453   0.964   3.084   2.049  2.6708  0.7716  0.1322
 1133SOL     OW 3454   0.471   4.314   1.520  0.0146  0.2454 -0.1798
 1133SOL    HW1 3455   0.440   4.224   1.521 -0.3424  0.3682  0.5214
 1133SOL    HW2 3456   0.393   4.366   1.539  0.6174  0.5673  1.5654
 1134SOL     OW 3457   4.094   3.875   4.730  0.2084 -0.4680 -0.5814
 1134SOL    HW1 3458   4.002   3.850   4.741  0.3747 -1.4037 -1.2049
 1134SOL    HW2 3459   4.128   3.812   4.667  0.8010  1.0199 -1.8093
 1135SOL     OW 3460  -0.032   3.163   1.491 -0.3729 -0.1400 -0.3884
 1135SOL    HW1 3461   0.047   3.149   1.439 -0.3485 -0.6442 -0.2191
 1135SOL    HW2 3462  -0.001   3.174   1.580 -0.4050  0.8433 -0.4855
 1136SOL     OW 3463   4.003   0.277   2.515  0.1690  0.5148 -0.2135
 1136SOL    HW1 3464   3.992   0.293   2.422  0.1169  1.2178 -0.0952
 1136SOL    HW2 3465   4.019   0.183   2.522  0.9448  0.5749 -0.9997
 1137SOL     OW 3466   1.658   0.047   3.976 -0.3586 -0.3032 -0.0376
 1137SOL    HW1 3467   1.608   0.058   4.057 -1.2074  0.3188 -0.6317
 1137SOL    HW2 3468   1.750   0.054   4.004 -0.6583  0.6875  0.7780
 1138SOL     OW 3469   0.685   1.748   4.191  0.2712  0.1907  0.0199
 1138SOL    HW1 3470   0.630   1.707   4.124 -0.7619 -0.8963  1.4685
 1138SOL    HW2 3471   0.772   1.712   4.175  0.0480 -0.0385 -0.7327
 1139SOL     OW 3472   0.935   0.750   2.383  0.3446 -0.3637 -0.5145
 1139SOL    HW1 3473   1.001   0.703   2.433  0.6987 -0.3771 -0.9857
 1139SOL    HW2 3474   0.865   0.686   2.369  1.1456 -1.0076 -1.7896
 1140SOL     OW 3475   2.242   2.878   3.809 -0.0275 -0.0954 -0.1609
 1140SOL    HW1 3476   2.225   2.960   3.855  1.0096  0.1335 -0.1525
 1140SOL    HW2 3477   2.328   2.850   3.841  0.1880 -0.5383 -1.0810
 1141SOL     OW 3478   0.733   1.452   2.579  0.8341  0.0541 -0.0870
 1141SOL    HW1 3479   0.679   1.383   2.540  2.2254 -0.5978 -0.9345
 1141SOL    HW2 3480   0.679   1.488   2.649 -0.4399 -1.0026 -0.4908
 1142SOL     OW 3481   0.399   2.751   3.437 -0.1012 -0.3884  0.1763
 1142SOL    HW1 3482   0.398   2.762   3.533  0.3484 -0.9608  0.2570
 1142SOL    HW2 3483   0.324   2.695   3.419 -1.1723  1.0521 -0.0050
 1143SOL     OW 3484   2.186   0.395   1.290 -0.1342 -0.1234  0.1621
 1143SOL    HW1 3485   2.195   0.468   1.228  1.5521 -1.3811 -1.1665
 1143SOL    HW2 3486   2.092   0.377   1.292 -0.3457  0.6600 -1.1860
 1144SOL     OW 3487   2.467   0.099   2.428 -0.0268 -0.6071  0.0643
 1144SOL    HW1 3488   2.447   0.020   2.478 -0.8408  0.5837  1.6850
 1144SOL    HW2 3489   2.549   0.131   2.465  0.2715 -0.6335 -0.5505
 1145SOL     OW 3490   3.467   0.460   1.346  0.2701 -0.6101 -0.1916
 1145SOL    HW1 3491   3.521   0.503   1.412 -0.9772 -1.0843  1.1867
 1145SOL    HW2 3492   3.530   0.419   1.287  1.4344  0.7393  0.0560
 1146SOL     OW 3493   1.021   1.169   1.279 -0.0858 -0.3892 -1.1956
 1146SOL    HW1 3494   1.114   1.145   1.282  0.2111  0.6927  1.5415
 1146SOL    HW2 3495   1.022   1.264   1.262 -0.4292  0.2250  1.6945
 1147SOL     OW 3496   4.131   4.224   2.638 -0.2774  0.3959  0.0972
 1147SOL    HW1 3497   4.140   4.291   2.570 -1.0844  1.1887  0.7398
 1147SOL    HW2 3498   4.040   4.233   2.668 -0.3266 -0.8344  0.3634
 1148SOL     OW 3499   0.210   3.072   1.378  0.0882 -0.2867  0.1340
 1148SOL    HW1 3500   0.223   3.017   1.456  2.3140 -1.1404 -0.7608
 1148SOL    HW2 3501   0.186   3.010   1.309  2.8401 -0.2722 -0.9400
 1149SOL     OW 3502   2.683   4.598   3.550 -0.0283 -0.6780  0.4435
 1149SOL    HW1 3503   2.732   4.650   3.486  0.5795 -0.3043  1.2039
 1149SOL    HW2 3504   2.693   4.507   3.520 -2.7887 -0.3316 -2.0938
 1150SOL     OW 3505   4.945   0.972   4.725  0.6360  0.0475  0.6456
 1150SOL    HW1 3506   4.883   0.928   4.782  1.6588 -2.0513  0.2422
 1150SOL    HW2 3507   4.983   1.041   4.779 -0.0307 -0.4309  1.7572
 1151SOL     OW 3508   0.191   2.944   0.721  0.0113  0.0698  0.2044
 1151SOL    HW1 3509   0.137   2.984   0.652 -2.3279  0.2543  2.0085
 1151SOL    HW2 3510   0.156   2.855   0.731  0.2395  0.0757  1.2073
 1152SOL     OW 3511   3.384   3.745   2.512  0.1786  0.1084 -0.6227
 1152SOL    HW1 3512   3.307   3.701   2.547  1.2734  0.1737  2.1553
 1152SOL    HW2 3513   3.458   3.704   2.558  1.4989  2.4374 -0.4902
 1153SOL     OW 3514   3.847   0.829   4.057 -0.8694  0.2984  0.2907
 1153SOL    HW1 3515   3.804   0.853   3.975  2.0302  0.4947 -1.3198
 1153SOL    HW2 3516   3.921   0.890   4.063  1.1594 -2.0974  1.0726
 1154SOL     OW 3517   0.574   4.531   3.921 -0.8719 -0.3744 -0.3927
 1154SOL    HW1 3518   0.666   4.556   3.927 -1.0747  0.1602  0.7503
 1154SOL    HW2 3519   0.576   4.445   3.877  0.0316  0.3092 -1.7585
 1155SOL     OW 3520   4.491   3.704   0.800 -0.0169  0.3338  0.2080
 1155SOL    HW1 3521   4.478   3.616   0.766  2.0151 -1.1981  2.9899
 1155SOL    HW2 3522   4.555   3.744   0.741 -0.3623 -0.3000 -0.6209
 1156SOL     OW 3523   0.708   1.752   4.765  0.3079 -0.6327 -0.5323
 1156SOL    HW1 3524   0.701   1.839   4.724  2.1558  0.3115  0.9747
 1156SOL    HW2 3525   0.654   1.696   4.710 -3.4129  1.9702  0.0660
 1157SOL     OW 3526   3.085   0.249   0.326 -0.3212  0.2559 -0.0785
 1157SOL    HW1 3527   3.103   0.205   0.409 -1.0597  1.1296  0.5701
 1157SOL    HW2 3528   3.138   0.202   0.262 -0.3980 -0.9853  0.7324
 1158SOL     OW 3529   3.590   3.688   0.150 -0.0044 -0.5733 -0.3566
 1158SOL    HW1 3530   3.507   3.700   0.103 -0.1663  0.0001  0.0728
 1158SOL    HW2 3531   3.637   3.770   0.139  0.2617 -0.6904 -0.1152
 1159SOL     OW 3532   3.720   1.882   3.749  0.6181  0.1916  0.2007
 1159SOL    HW1 3533   3.746   1.966   3.788  1.3220  0.1270 -0.1209
 1159SOL    HW2 3534   3.633   1.866   3.784  0.7052  0.7854  0.7114
 1160SOL     OW 3535   0.327   0.568   1.653  0.1653 -0.1332 -0.3776
 1160SOL    HW1 3536   0.361   0.493   1.702  1.9758  1.0029  0.1772
 1160SOL    HW2 3537   0.391   0.584   1.584 -0.2354  0.8528 -0.5400
 1161SOL     OW 3538   3.037   2.100   2.957  0.1591  0.0684  0.3864
 1161SOL    HW1 3539   2.969   2.116   2.892  0.0260 -1.7173  0.0256
 1161SOL    HW2 3540   3.089   2.029   2.920  0.7683 -0.2246  1.7359
 1162SOL     OW 3541   1.139   4.145   1.287 -0.4707  0.7511 -0.3045
 1162SOL    HW1 3542   1.070   4.136   1.221 -0.2091  0.4418 -0.5407
 1162SOL    HW2 3543   1.214   4.178   1.238  0.7757 -2.5525 -0.8968
 1163SOL     OW 3544   4.756   0.536   1.317  0.4988  0.0106  0.5120
 1163SOL    HW1 3545   4.810   0.465   1.282 -1.1341 -0.8980 -0.3385
 1163SOL    HW2 3546   4.686   0.546   1.252 -0.8961  0.4490  2.0094
 1164SOL     OW 3547   1.218   0.831   3.785 -0.0914  0.2461  0.5711
 1164SOL    HW1 3548   1.259   0.870   3.863 -2.2930  2.1433  0.8822
 1164SOL    HW2 3549   1.147   0.777   3.820 -0.1357 -0.1184 -0.0812
 1165SOL     OW 3550   4.156   2.292   4.207  0.7959  0.1991  0.0497
 1165SOL    HW1 3551   4.078   2.301   4.152  0.9011 -2.3989 -0.6423
 1165SOL    HW2 3552   4.229   2.290   4.145  1.1622 -0.1401  0.4876
 1166SOL     OW 3553   2.677   1.544   4.310  0.6002 -0.0979  0.3174
 1166SOL    HW1 3554   2.650   1.474   4.250  3.0384 -0.1183 -0.8999
 1166SOL    HW2 3555   2.641   1.624   4.271  1.3337 -0.2257 -0.6789
 1167SOL     OW 3556   3.583   1.452   3.241  0.1248 -0.5850  0.5293
 1167SOL    HW1 3557   3.673   1.429   3.217  0.1079 -0.7933  0.6594
 1167SOL    HW2 3558   3.588   1.543   3.269 -0.2578  0.5191 -2.5420
 1168SOL     OW 3559   2.369   3.440   2.920 -0.4108 -0.2212 -0.6533
 1168SOL    HW1 3560   2.281   3.462   2.951 -1.1675  0.1453 -2.8590
 1168SOL    HW2 3561   2.373   3.476   2.831  2.7215  1.6556  0.0716
 1169SOL     OW 3562   3.135   4.022   3.952  0.0106 -0.1903 -0.1765
 1169SOL    HW1 3563   3.091   4.095   3.994 -0.6761 -0.3214 -0.6482
 1169SOL    HW2 3564   3.153   4.052   3.863  0.5672 -0.2623 -0.0907
 1170SOL     OW 3565   1.917   3.710   4.158  0.3477  0.1489 -0.0862
 1170SOL    HW1 3566   1.870   3.632   4.128 -0.0704  0.4026 -0.1058
 1170SOL    HW2 3567   1.859   3.783   4.133  0.2126  0.3934  0.9234
 1171SOL     OW 3568   4.399   4.134   0.276 -0.2417 -0.0753 -1.1175
 1171SOL    HW1 3569   4.405   4.211   0.333 -0.1787  0.4106 -1.7541
 1171SOL    HW2 3570   4.342   4.162   0.204 -1.0471 -0.9746 -0.8389
 1172SOL     OW 3571   2.849   3.041   4.168  0.6028  0.0716  0.3677
 1172SOL    HW1 3572   2.883   3.028   4.256  0.5745 -1.3942  0.1914
 1172SOL    HW2 3573   2.763   3.000   4.169  0.4070  0.4595 -0.2059
 1173SOL     OW 3574   1.994   0.064   0.610 -0.4957 -0.3596 -0.1643
 1173SOL    HW1 3575   2.022   0.150   0.580 -0.4560  0.2003  1.3522
 1173SOL    HW2 3576   2.026   0.003   0.544  2.0785  0.4999  0.1659
 1174SOL     OW 3577   4.281   0.472   2.974  0.1124 -0.8124  0.0058
 1174SOL    HW1 3578   4.211   0.448   2.914 -0.4645 -2.5555  1.3086
 1174SOL    HW2 3579   4.359   0.478   2.918 -0.7947 -0.1352 -1.2441
 1175SOL     OW 3580   1.680   3.735   1.482 -0.1365 -0.4904  0.9338
 1175SOL    HW1 3581   1.673   3.810   1.541  0.2774 -0.2424  0.6656
 1175SOL    HW2 3582   1.603   3.741   1.426  1.2997  1.3543 -0.9743
 1176SOL     OW 3583   3.504   3.341   0.094  0.4085  0.4118 -0.1952
 1176SOL    HW1 3584   3.437   3.297   0.041  1.3168  0.0179 -1.0340
 1176SOL    HW2 3585   3.454   3.401   0.150 -0.7007 -0.3619 -0.3181
 1177SOL     OW 3586   4.829   3.104   1.894  0.1672 -0.2432 -0.0923
 1177SOL    HW1 3587   4.853   3.136   1.981 -1.7186  0.3251  0.2556
 1177SOL    HW2 3588   4.913   3.094   1.849  1.1348  0.2478  1.4974
 1178SOL     OW 3589   3.646   1.405   4.149  0.6840 -0.0730 -0.2709
 1178SOL    HW1 3590   3.609   1.416   4.061  1.5089 -0.3580 -0.6660
 1178SOL    HW2 3591   3.570   1.405   4.207 -0.1051 -2.0512 -1.1801
 1179SOL     OW 3592   2.756   1.681   1.025  0.2385  0.4552  0.0343
 1179SOL    HW1 3593   2.669   1.718   1.009  0.7301  1.5371 -0.2483
 1179SOL    HW2 3594   2.754   1.655   1.117 -0.4125  0.3868  0.0098
 1180SOL     OW 3595   3.968   4.299   0.930 -0.2195 -0.2008 -0.0430
 1180SOL    HW1 3596   4.008   4.386   0.930  0.6270 -0.5276 -2.3785
 1180SOL    HW2 3597   4.020   4.249   0.993  0.9691  0.2727 -0.6256
 1181SOL     OW 3598   1.087   0.902   2.731  0.8361  0.6872  0.4361
 1181SOL    HW1 3599   1.154   0.835   2.748 -1.1794 -1.5352  0.2614
 1181SOL    HW2 3600   1.036   0.906   2.812 -0.6080  0.0658 -0.3941
 1182SOL     OW 3601   2.870   0.016   1.266  0.2297  0.6525 -0.5999
 1182SOL    HW1 3602   2.789   0.062   1.248 -1.2534 -0.7821  1.9137
 1182SOL    HW2 3603   2.903   0.055   1.347  0.0557 -1.1756  0.4022
 1183SOL     OW 3604   1.557   4.105   1.268  0.3512 -0.2452 -0.2568
 1183SOL    HW1 3605   1.576   4.049   1.343 -1.1917 -1.0159 -0.4064
 1183SOL    HW2 3606   1.530   4.188   1.307  0.9593 -0.1621  0.0009
 1184SOL     OW 3607   1.943   0.200   3.948 -0.3255 -0.6355  0.4631
 1184SOL    HW1 3608   1.996   0.272   3.981 -3.0314  0.6965  2.3237
 1184SOL    HW2 3609   1.982   0.122   3.986  0.4236  0.2537  1.5927
 1185SOL     OW 3610   2.074   4.602   3.684 -0.6631  0.7856 -0.1655
 1185SOL    HW1 3611   2.111   4.663   3.620 -0.5406  1.0675  0.1722
 1185SOL    HW2 3612   1.999   4.564   3.639  1.0094 -1.1104 -1.5188
 1186SOL     OW 3613   3.949   4.802   0.058 -0.2147 -0.0523 -0.0625
 1186SOL    HW1 3614   3.967   4.856  -0.019  0.7804 -0.6071 -0.2324
 1186SOL    HW2 3615   3.907   4.724   0.023 -0.4107  0.0095  0.0362
 1187SOL     OW 3616   3.138   0.729   1.269  0.1360 -0.1727 -0.2588
 1187SOL    HW1 3617   3.188   0.787   1.211  2.1788 -0.9175  0.6657
 1187SOL    HW2 3618   3.072   0.786   1.309  0.6569  1.0036 -1.0348
 1188SOL     OW 3619   2.937   3.666   4.928  0.7740  0.5047 -0.5755
 1188SOL    HW1 3620   2.949   3.686   5.020  1.3974 -1.6035 -0.1255
 1188SOL    HW2 3621   2.843   3.655   4.917  0.5434  2.2143 -0.5730
 1189SOL     OW 3622   2.527   0.253   0.734 -0.1187 -0.2742 -0.0612
 1189SOL    HW1 3623   2.454   0.194   0.720 -0.6934  0.6469 -1.1929
 1189SOL    HW2 3624   2.586   0.206   0.793 -1.6875 -0.9603  1.0208
 1190SOL     OW 3625   0.388   0.473   3.931  0.0525  0.2083  0.4309
 1190SOL    HW1 3626   0.459   0.519   3.886  0.1950 -1.4907 -1.1867
 1190SOL    HW2 3627   0.314   0.534   3.929  0.1228  0.2838 -1.9807
 1191SOL     OW 3628   1.936   3.465   3.543 -0.4626  0.1228  0.4277
 1191SOL    HW1 3629   2.002   3.395   3.535  0.0484  0.1000  3.4994
 1191SOL    HW2 3630   1.854   3.423   3.516  0.0211 -1.3561  1.1201
 1192SOL     OW 3631   0.936   1.363   1.848 -0.2868 -0.1901 -0.1158
 1192SOL    HW1 3632   0.854   1.352   1.799 -1.4750  1.8859  1.2637
 1192SOL    HW2 3633   0.959   1.455   1.835  0.4216 -0.0883  1.6388
 1193SOL     OW 3634   3.681   4.696   1.534  0.6665 -0.1523  0.3812
 1193SOL    HW1 3635   3.618   4.628   1.554 -0.2584  0.4716 -0.3604
 1193SOL    HW2 3636   3.681   4.752   1.612  0.7751 -0.4987  0.6328
 1194SOL     OW 3637   0.785   2.882   1.064  0.3978 -0.3931 -0.2853
 1194SOL    HW1 3638   0.854   2.925   1.014 -0.5651  4.1232  1.8003
 1194SOL    HW2 3639   0.831   2.839   1.137  1.2415 -1.2397 -1.2805
 1195SOL     OW 3640   0.545   4.411   2.836 -0.7179  0.5411 -0.2354
 1195SOL    HW1 3641   0.521   4.402   2.744  1.1175 -0.3047 -0.6950
 1195SOL    HW2 3642   0.590   4.329   2.856  1.0161  1.6686  0.6952
 1196SOL     OW 3643   3.806   1.302   2.671  0.4297  0.4443  0.0163
 1196SOL    HW1 3644   3.784   1.210   2.683 -0.1786  0.4508 -1.0085
 1196SOL    HW2 3645   3.723   1.348   2.679  0.6006  0.8210 -0.3812
 1197SOL     OW 3646   2.777   3.099   2.758  0.5246 -0.2511 -0.2416
 1197SOL    HW1 3647   2.700   3.117   2.704  1.7293 -1.4114 -2.5035
 1197SOL    HW2 3648   2.825   3.182   2.762 -0.3573  0.2400  0.4091
 1198SOL     OW 3649   0.030   0.238   2.518 -0.0693 -0.4676  0.3242
 1198SOL    HW1 3650  -0.012   0.153   2.506 -0.7500 -0.0598 -0.2850
 1198SOL    HW2 3651  -0.001   0.268   2.603  0.0770 -0.7728  0.4864
 1199SOL     OW 3652   1.261   2.259   2.328  0.2516  0.6483  0.6443
 1199SOL    HW1 3653   1.346   2.215   2.338 -0.4827 -0.9123  0.3616
 1199SOL    HW2 3654   1.254   2.275   2.234  0.7991  2.0270  0.8146
 1200SOL     OW 3655   3.651   2.806   4.452  0.0137  0.0393 -0.1027
 1200SOL    HW1 3656   3.614   2.763   4.375 -1.1966 -0.1250  0.5475
 1200SOL    HW2 3657   3.606   2.766   4.526 -1.0719  2.3040  0.5492
 1201SOL     OW 3658   1.335   2.687   0.658 -0.1210 -0.0111 -0.2591
 1201SOL    HW1 3659   1.252   2.729   0.635  0.6450  0.3993 -2.4977
 1201SOL    HW2 3660   1.360   2.639   0.579  0.8663 -1.6834  1.0091
 1202SOL     OW 3661   3.902   4.613   3.686  0.0515  0.1942  0.4280
 1202SOL    HW1 3662   3.933   4.532   3.644 -0.3628  0.6553 -0.8022
 1202SOL    HW2 3663   3.932   4.605   3.777  0.0052 -1.3475  0.3448
 1203SOL     OW 3664   0.152   1.390   4.479 -0.2999 -0.3347  0.0305
 1203SOL    HW1 3665   0.233   1.350   4.510 -0.5512 -1.2571 -0.4597
 1203SOL    HW2 3666   0.082   1.338   4.519 -0.7121  1.3622  1.6612
 1204SOL     OW 3667   1.811   4.341   0.614 -0.0960 -0.3899 -0.3987
 1204SOL    HW1 3668   1.761   4.300   0.685  0.3589 -0.2806 -0.0106
 1204SOL    HW2 3669   1.898   4.300   0.619 -0.4972 -1.5541 -1.8891
 1205SOL     OW 3670   4.424   0.967   3.966 -0.2940  0.8822 -0.2505
 1205SOL    HW1 3671   4.455   1.001   4.050 -1.4547  1.4019 -0.0177
 1205SOL    HW2 3672   4.501   0.924   3.928  0.6463  1.9081  0.4143
 1206SOL     OW 3673   1.353   0.328   1.045  0.6611 -0.5047  0.5049
 1206SOL    HW1 3674   1.265   0.302   1.073 -0.6127  3.1249  0.4306
 1206SOL    HW2 3675   1.376   0.401   1.103  2.2556  0.6567 -1.4682
 1207SOL     OW 3676   0.168   4.418   3.794 -0.3577  0.1776 -0.0978
 1207SOL    HW1 3677   0.246   4.393   3.743  0.1816  0.1324  0.7285
 1207SOL    HW2 3678   0.146   4.340   3.844 -0.8929  0.2206 -0.2566
 1208SOL     OW 3679   1.135   2.137   3.870 -0.2098  0.2328  0.1266
 1208SOL    HW1 3680   1.112   2.116   3.779 -1.0302 -0.4584  0.4822
 1208SOL    HW2 3681   1.227   2.163   3.866  0.5028 -2.2158 -0.5468
 1209SOL     OW 3682   4.833   1.515   4.695 -0.4672 -0.6338 -0.2229
 1209SOL    HW1 3683   4.795   1.594   4.733 -0.6633 -0.2500 -1.1828
 1209SOL    HW2 3684   4.867   1.543   4.610  0.8309 -1.2486  0.0612
 1210SOL     OW 3685   4.862   0.571   3.221 -0.3679  0.2032  0.2804
 1210SOL    HW1 3686   4.869   0.504   3.289 -1.2453 -0.3156 -0.1241
 1210SOL    HW2 3687   4.796   0.537   3.161 -0.4488  1.2019 -0.2085
 1211SOL     OW 3688   0.886   2.694   2.880  0.1204  0.1367 -0.6442
 1211SOL    HW1 3689   0.950   2.625   2.861 -0.7917 -1.3211  1.2424
 1211SOL    HW2 3690   0.920   2.739   2.957 -0.6397 -0.0130 -0.2125
 1212SOL     OW 3691   2.056   1.792   3.196 -0.0849  0.3461 -0.3117
 1212SOL    HW1 3692   2.135   1.779   3.144 -0.1320  1.5197 -0.7102
 1212SOL    HW2 3693   2.007   1.711   3.187  0.6674 -0.0675 -0.7696
 1213SOL     OW 3694   3.933   0.798   1.542 -0.0694 -0.7886  0.1596
 1213SOL    HW1 3695   3.926   0.891   1.523  0.2212 -0.3070  2.2194
 1213SOL    HW2 3696   3.881   0.756   1.473 -2.0410  1.0214  0.4226
 1214SOL     OW 3697   3.543   1.349   2.139  0.1570 -0.1524  0.2788
 1214SOL    HW1 3698   3.527   1.294   2.215 -3.2342  0.0423 -0.1338
 1214SOL    HW2 3699   3.571   1.288   2.071 -0.4881 -0.9088  0.6708
 1215SOL     OW 3700   2.074   3.241   2.139  0.1252 -0.8175 -0.1013
 1215SOL    HW1 3701   2.048   3.187   2.064  1.1380 -0.6794 -0.5661
 1215SOL    HW2 3702   2.137   3.188   2.187  1.0214 -0.1413 -0.4841
 1216SOL     OW 3703   4.917   2.197   4.046  0.2182  0.2779 -0.2233
 1216SOL    HW1 3704   4.843   2.258   4.046 -0.2688 -0.2941  0.7857
 1216SOL    HW2 3705   4.880   2.115   4.078  1.2231 -0.1130 -0.0389
 1217SOL     OW 3706   3.942   1.749   3.692  0.5747 -0.3088 -0.0267
 1217SOL    HW1 3707   4.021   1.793   3.723  0.5641 -1.1741  1.2740
 1217SOL    HW2 3708   3.870   1.801   3.727  0.5656 -0.5725  0.3477
 1218SOL     OW 3709   4.843   3.419   3.268 -0.8845  0.5110 -0.5603
 1218SOL    HW1 3710   4.764   3.366   3.255  1.0051 -2.8137  0.2547
 1218SOL    HW2 3711   4.827   3.465   3.350 -1.0714 -2.2613  1.1150
 1219SOL     OW 3712   0.488   3.000   1.694  0.0643  0.1069 -0.0871
 1219SOL    HW1 3713   0.582   3.011   1.708 -0.0740  1.9386 -0.4218
 1219SOL    HW2 3714   0.448   3.033   1.774 -0.3100 -0.8826  0.1482
 1220SOL     OW 3715   4.807   2.845   3.047  0.4374 -0.2054  0.4331
 1220SOL    HW1 3716   4.793   2.940   3.047 -0.9589 -0.3958 -0.1521
 1220SOL    HW2 3717   4.851   2.827   3.131  1.5175  1.0479  0.1699
 1221SOL     OW 3718   1.943   1.526   3.206  0.0638 -0.7561 -0.1344
 1221SOL    HW1 3719   2.015   1.469   3.235  1.2299  1.0042  0.5831
 1221SOL    HW2 3720   1.871   1.505   3.265 -0.0935 -2.6088 -0.9144
 1222SOL     OW 3721   0.700   0.668   2.633 -0.9902  0.2814 -0.1349
 1222SOL    HW1 3722   0.626   0.727   2.642  0.7413  2.2381  4.5553
 1222SOL    HW2 3723   0.675   0.589   2.681 -0.4448  0.6123  0.7305
 1223SOL     OW 3724   2.021   0.832   1.907  0.1961  0.0734 -0.4432
 1223SOL    HW1 3725   2.035   0.861   1.817  1.1790  0.1192 -0.2769
 1223SOL    HW2 3726   1.990   0.910   1.953 -0.8229 -0.0719 -0.8416
 1224SOL     OW 3727   2.720   0.200   1.608 -0.2693  0.4434 -0.5784
 1224SOL    HW1 3728   2.706   0.215   1.702 -0.0633  0.5609 -0.5670
 1224SOL    HW2 3729   2.633   0.175   1.575 -0.1505 -0.5391 -0.1795
 1225SOL     OW 3730   0.445   3.915   3.141 -0.2673 -0.0673 -0.1505
 1225SOL    HW1 3731   0.517   3.949   3.194 -0.6954 -0.6682  0.8426
 1225SOL    HW2 3732   0.372   3.975   3.158  0.1485  0.9370 -1.6740
 1226SOL     OW 3733   1.586   0.286   4.918  0.0732  0.1379 -0.2240
 1226SOL    HW1 3734   1.517   0.353   4.919 -0.7636 -0.7284  0.5539
 1226SOL    HW2 3735   1.551   0.214   4.970  1.4475 -0.4434 -0.0819
 1227SOL     OW 3736   3.413   0.346   3.777  0.4608  0.5518 -0.1475
 1227SOL    HW1 3737   3.435   0.438   3.792  0.4492  0.4361  0.5926
 1227SOL    HW2 3738   3.483   0.297   3.821  0.3020  0.2033 -0.2817
 1228SOL     OW 3739   0.900   3.180   2.563  0.3750  0.1915  0.3423
 1228SOL    HW1 3740   0.886   3.222   2.478  0.9163  0.2003  0.2538
 1228SOL    HW2 3741   0.961   3.238   2.608  0.8367 -0.3029  0.3618
 1229SOL     OW 3742   0.184   3.995   4.101 -0.2893 -0.2384 -0.3614
 1229SOL    HW1 3743   0.245   3.924   4.080 -0.6926 -0.9687  0.8055
 1229SOL    HW2 3744   0.097   3.957   4.087 -0.5096  0.6390 -1.5378
 1230SOL     OW 3745   2.349   4.621   0.771 -0.1809  0.6405  0.4218
 1230SOL    HW1 3746   2.326   4.585   0.686  0.4183 -1.3840  1.0378
 1230SOL    HW2 3747   2.413   4.689   0.752  1.8110 -1.3851 -0.7105
 1231SOL     OW 3748   2.145   4.429   1.710 -0.0695 -0.2415  0.5686
 1231SOL    HW1 3749   2.085   4.442   1.636  0.3574 -1.0091  0.0799
 1231SOL    HW2 3750   2.186   4.344   1.693  1.3032  0.3500  0.7910
 1232SOL     OW 3751   1.506   0.096   1.711  0.0279  0.4825  0.2957
 1232SOL    HW1 3752   1.458   0.018   1.741  1.0897  0.0297  0.8925
 1232SOL    HW2 3753   1.568   0.062   1.647 -2.4662  1.4836 -2.9394
 1233SOL     OW 3754   0.152   3.644   3.292  0.6184 -0.0163 -0.4328
 1233SOL    HW1 3755   0.106   3.661   3.209  1.5128  0.6355 -0.8194
 1233SOL    HW2 3756   0.121   3.712   3.351  0.2465 -0.2666 -0.3337
 1234SOL     OW 3757   4.668   4.034   0.158  0.2596  0.4809  0.4798
 1234SOL    HW1 3758   4.593   4.038   0.099 -0.5418  2.1607  1.5341
 1234SOL    HW2 3759   4.657   3.951   0.205  0.4402 -0.4552 -1.0570
 1235SOL     OW 3760   3.349   0.931   4.223  0.0769  0.1134  0.9812
 1235SOL    HW1 3761   3.268   0.944   4.174  0.0498  0.5957  1.1439
 1235SOL    HW2 3762   3.349   0.839   4.247 -0.7338  0.2435  1.5245
 1236SOL     OW 3763   3.497   0.733   3.391  0.0977 -0.2331 -0.0597
 1236SOL    HW1 3764   3.502   0.823   3.359  0.3913 -0.0456  0.4860
 1236SOL    HW2 3765   3.404   0.712   3.389 -0.0725  0.3939  0.6094
 1237SOL     OW 3766   3.371  -0.000   2.098  0.6851  0.2810 -0.0778
 1237SOL    HW1 3767   3.388   0.094   2.107  1.2800  0.3466 -1.6196
 1237SOL    HW2 3768   3.454  -0.038   2.071  0.2355 -0.5557 -0.3451
 1238SOL     OW 3769   0.848   2.552   3.255 -0.8131  0.1442 -0.0876
 1238SOL    HW1 3770   0.816   2.642   3.268 -0.1970  0.0228  3.4075
 1238SOL    HW2 3771   0.935   2.563   3.218 -1.4443  0.8486 -1.4521
 1239SOL     OW 3772   3.782   4.956   4.462 -0.9757  0.4159  0.2793
 1239SOL    HW1 3773   3.810   4.869   4.488  0.5252  1.0812  0.9898
 1239SOL    HW2 3774   3.862   5.000   4.433 -1.5656  1.7981  0.6444
 1240SOL     OW 3775   4.173   2.409   4.879 -0.8462  0.7465  0.1822
 1240SOL    HW1 3776   4.115   2.485   4.883 -1.9572  0.1984 -2.8226
 1240SOL    HW2 3777   4.132   2.351   4.815  2.0250 -0.5999 -0.6134
 1241SOL     OW 3778   3.859   4.171   2.702  0.1242 -0.0549 -0.2628
 1241SOL    HW1 3779   3.798   4.240   2.678  0.1364  0.1465  0.2614
 1241SOL    HW2 3780   3.830   4.094   2.654 -1.5887 -0.4291  1.2643
 1242SOL     OW 3781   2.306   0.838   1.263  0.2741 -0.4940  0.3349
 1242SOL    HW1 3782   2.231   0.787   1.231 -0.7458 -0.4916  2.5148
 1242SOL    HW2 3783   2.370   0.772   1.289 -0.1378 -0.6352  1.0467
 1243SOL     OW 3784   2.503   1.527   2.990  0.0154 -0.7755 -0.5429
 1243SOL    HW1 3785   2.546   1.531   2.905  2.0178 -0.7506  0.4006
 1243SOL    HW2 3786   2.424   1.580   2.980  1.4450  1.3099 -1.7251
 1244SOL     OW 3787   2.093   1.903   3.822 -0.1754  0.2711 -0.4487
 1244SOL    HW1 3788   2.159   1.948   3.770 -0.5266  0.1252 -1.0244
 1244SOL    HW2 3789   2.086   1.816   3.783 -0.4228  0.1491 -0.1426
 1245SOL     OW 3790   3.460   1.936   0.960  0.7998  0.3092 -0.3745
 1245SOL    HW1 3791   3.534   1.883   0.930  1.2983  1.3799 -1.1072
 1245SOL    HW2 3792   3.500   2.004   1.015  0.4293  1.0780 -1.0193
 1246SOL     OW 3793   2.803   3.465   1.215 -0.0956 -0.7251 -0.2831
 1246SOL    HW1 3794   2.854   3.484   1.294 -0.3907 -1.7526  0.1684
 1246SOL    HW2 3795   2.807   3.370   1.206 -0.2225 -0.6378 -1.4081
 1247SOL     OW 3796   3.972   3.012   1.382  0.2428  0.2642  0.0053
 1247SOL    HW1 3797   3.946   3.095   1.422 -0.0492  0.6558 -0.9666
 1247SOL    HW2 3798   4.058   3.029   1.344 -0.2750  0.4584 -1.1244
 1248SOL     OW 3799   4.729   1.313   2.549 -0.2188  0.1631 -0.2843
 1248SOL    HW1 3800   4.817   1.349   2.554  0.1499 -0.4987 -1.6355
 1248SOL    HW2 3801   4.723   1.274   2.462 -1.3950 -0.9837  0.2674
 1249SOL     OW 3802   0.977   2.687   1.221 -0.6043  0.7597 -0.1796
 1249SOL    HW1 3803   1.033   2.624   1.175 -0.5751  0.6728 -0.0278
 1249SOL    HW2 3804   1.038   2.745   1.267 -0.6057 -0.7743  1.9451
 1250SOL     OW 3805   2.790   1.208   4.273  0.0287  0.4926  0.5642
 1250SOL    HW1 3806   2.864   1.269   4.274  0.4396  0.0300 -0.3225
 1250SOL    HW2 3807   2.783   1.177   4.363  1.9492 -0.6711  0.3766
 1251SOL     OW 3808   2.667   2.968   2.335 -0.4586  0.3961 -0.1452
 1251SOL    HW1 3809   2.747   2.954   2.283  0.1895  0.0992  0.9084
 1251SOL    HW2 3810   2.663   2.893   2.393 -1.0126  0.8803  0.4518
 1252SOL     OW 3811   2.708   0.630   0.663  0.2791 -0.6003  0.2004
 1252SOL    HW1 3812   2.693   0.716   0.624 -0.6223 -0.4574  0.8433
 1252SOL    HW2 3813   2.706   0.646   0.758  1.4974 -1.1013  0.3338
 1253SOL     OW 3814   4.842   1.353   3.594  0.2389  0.5882  0.2147
 1253SOL    HW1 3815   4.760   1.370   3.641  0.2802  2.7320 -0.4050
 1253SOL    HW2 3816   4.818   1.358   3.501  0.7401 -0.6728 -0.0075
 1254SOL     OW 3817   3.392   1.084   0.662 -0.3075 -0.9625 -0.2777
 1254SOL    HW1 3818   3.464   1.021   0.668 -0.2119 -0.7158  2.0983
 1254SOL    HW2 3819   3.355   1.070   0.575  0.2384 -3.7189 -0.1596
 1255SOL     OW 3820   1.897   1.194   0.346  0.4945  0.2903  0.3500
 1255SOL    HW1 3821   1.930   1.276   0.384 -0.4887  0.3081  1.2087
 1255SOL    HW2 3822   1.938   1.125   0.398  0.1407  0.2825  0.6226
 1256SOL     OW 3823   2.315   3.700   4.877  0.1603 -0.0604 -0.3263
 1256SOL    HW1 3824   2.265   3.748   4.811 -1.0212  0.1939  0.7070
 1256SOL    HW2 3825   2.346   3.768   4.937  1.3070 -0.2780 -0.6620
 1257SOL     OW 3826   3.692   1.814   4.078  0.6098  0.5670  0.1932
 1257SOL    HW1 3827   3.724   1.889   4.128  0.9220 -0.8083  2.1480
 1257SOL    HW2 3828   3.606   1.843   4.045  0.6304  1.6964  1.0633
 1258SOL     OW 3829   1.869   3.038   4.791  0.0716 -0.6305 -0.4120
 1258SOL    HW1 3830   1.880   2.972   4.723  0.0175  1.8697 -3.0582
 1258SOL    HW2 3831   1.838   2.989   4.867  0.1307 -3.6129 -2.1404
 1259SOL     OW 3832   1.021   3.944   2.511 -0.2504 -0.5716  0.2254
 1259SOL    HW1 3833   0.994   4.014   2.451 -0.0721  0.3653  1.2095
 1259SOL    HW2 3834   1.062   3.878   2.454 -1.7685 -0.5874 -0.8989
 1260SOL     OW 3835   3.319   0.974   4.489  0.5646  0.0020  0.1651
 1260SOL    HW1 3836   3.279   0.951   4.405 -0.2062  0.0783  0.5063
 1260SOL    HW2 3837   3.356   0.892   4.521  1.5121  0.1174 -0.5838
 1261SOL     OW 3838   3.518   2.228   2.673 -0.4072  0.2211 -0.0805
 1261SOL    HW1 3839   3.472   2.176   2.606 -0.6324 -0.4715  0.6009
 1261SOL    HW2 3840   3.610   2.206   2.661 -0.4837 -0.1916  0.0784
 1262SOL     OW 3841   1.053   3.567   4.096 -0.4333  0.5047 -0.5502
 1262SOL    HW1 3842   1.146   3.588   4.088 -0.3605  0.5293  0.2678
 1262SOL    HW2 3843   1.047   3.511   4.174 -1.2195  1.2530 -0.0585
 1263SOL     OW 3844   3.303   2.033   4.451 -0.6155 -0.1648 -0.5373
 1263SOL    HW1 3845   3.330   2.072   4.369 -1.4559 -1.1995 -1.3359
 1263SOL    HW2 3846   3.248   1.958   4.426 -0.3815 -0.8833  0.9403
 1264SOL     OW 3847   3.196   3.353   2.990 -0.0754 -0.5830  0.2228
 1264SOL    HW1 3848   3.225   3.442   2.969  1.1082 -1.4754 -2.4084
 1264SOL    HW2 3849   3.232   3.336   3.078  0.9642  1.0156  0.1439
 1265SOL     OW 3850   1.271   0.928   4.481 -0.4327  0.2394  0.1606
 1265SOL    HW1 3851   1.352   0.883   4.504 -0.3370  0.8541  1.0438
 1265SOL    HW2 3852   1.233   0.873   4.411  0.7927  0.0300 -0.3661
 1266SOL     OW 3853   4.080   1.274   3.201 -0.2537  0.0724  0.0136
 1266SOL    HW1 3854   4.132   1.336   3.150 -1.3300 -0.1826 -1.4652
 1266SOL    HW2 3855   4.141   1.203   3.223  0.2929  0.2916 -0.7594
 1267SOL     OW 3856   4.206   4.856   2.736 -0.0505  0.3275  0.0619
 1267SOL    HW1 3857   4.198   4.910   2.657 -1.1536  2.2012  1.3834
 1267SOL    HW2 3858   4.292   4.879   2.772  0.2320 -0.1419 -0.3018
 1268SOL     OW 3859   2.140   1.047   3.093 -0.0505  0.0293  0.5205
 1268SOL    HW1 3860   2.208   0.998   3.139 -0.6858  0.9256  2.5249
 1268SOL    HW2 3861   2.188   1.118   3.049  0.7936 -1.9391 -1.9301
 1269SOL     OW 3862   0.919   4.405   2.346 -0.4283 -0.2895 -0.1936
 1269SOL    HW1 3863   0.904   4.479   2.404  0.7886 -1.8186  2.2740
 1269SOL    HW2 3864   0.974   4.440   2.276 -2.2204  1.7046 -0.6969
 1270SOL     OW 3865   1.843   2.421   1.899 -0.1827 -0.0748 -0.3335
 1270SOL    HW1 3866   1.889   2.446   1.818 -0.4141 -3.0770 -1.5012
 1270SOL    HW2 3867   1.902   2.361   1.944 -1.2137 -0.6604  0.2840
 1271SOL     OW 3868   4.097   4.736   4.673 -0.2241  0.4792 -0.5256
 1271SOL    HW1 3869   4.051   4.751   4.591 -0.6578 -2.3386 -0.8881
 1271SOL    HW2 3870   4.187   4.716   4.647 -0.4679 -0.8764 -0.4030
 1272SOL     OW 3871   3.623   4.333   4.710 -0.3166  0.7803  0.2546
 1272SOL    HW1 3872   3.712   4.361   4.732 -0.2761 -0.8730  2.5394
 1272SOL    HW2 3873   3.568   4.371   4.779 -0.8646 -0.9530  0.8280
 1273SOL     OW 3874   0.563   2.363   3.948  0.8080 -0.0039  0.2313
 1273SOL    HW1 3875   0.553   2.369   3.853  1.5753  1.8458  0.2501
 1273SOL    HW2 3876   0.562   2.268   3.965 -1.0269 -0.3486 -1.4097
 1274SOL     OW 3877   2.487   0.320   2.050  0.1298  0.2049  0.1922
 1274SOL    HW1 3878   2.421   0.362   1.995 -0.0436  0.9861  0.9786
 1274SOL    HW2 3879   2.443   0.242   2.084  0.5770 -0.8648 -1.5641
 1275SOL     OW 3880   0.496   1.786   1.266 -0.3083  0.1900 -0.2369
 1275SOL    HW1 3881   0.474   1.696   1.289 -0.7615  0.3906  0.1378
 1275SOL    HW2 3882   0.417   1.821   1.225  0.2184  0.0940 -1.3623
 1276SOL     OW 3883   3.001   4.709   3.739 -0.2850 -0.1480 -0.0941
 1276SOL    HW1 3884   3.052   4.645   3.689 -0.5297 -0.3678 -0.0618
 1276SOL    HW2 3885   3.059   4.736   3.810  0.7581  1.4929 -1.4868
 1277SOL     OW 3886   4.304   3.294   4.891 -0.0904  0.3403  0.4017
 1277SOL    HW1 3887   4.278   3.286   4.983  0.4156 -0.2255  0.5042
 1277SOL    HW2 3888   4.374   3.359   4.892  0.7434 -0.5444  0.5955
 1278SOL     OW 3889   4.699   1.504   2.216 -0.2679 -1.0872  0.0677
 1278SOL    HW1 3890   4.717   1.581   2.270  0.6985  0.0156 -1.7100
 1278SOL    HW2 3891   4.746   1.433   2.259 -0.1604 -0.4327  1.0743
 1279SOL     OW 3892   1.487   3.570   4.288 -0.2548 -0.0343 -0.0227
 1279SOL    HW1 3893   1.487   3.555   4.382  0.2195 -1.8750 -0.2724
 1279SOL    HW2 3894   1.528   3.655   4.277 -0.6392  0.3718  1.4391
 1280SOL     OW 3895   3.994   1.174   4.512 -0.0827 -0.0729 -0.4851
 1280SOL    HW1 3896   3.970   1.084   4.535  0.0769 -0.5534 -2.1264
 1280SOL    HW2 3897   3.918   1.208   4.465 -0.7410  1.1931  1.3576
 1281SOL     OW 3898   0.799   3.862   3.892  0.1823  0.0276 -0.0402
 1281SOL    HW1 3899   0.870   3.847   3.829 -0.9368 -0.7446 -1.1633
 1281SOL    HW2 3900   0.762   3.946   3.867 -0.3983 -0.3776 -0.5689
 1282SOL     OW 3901   0.149   4.537   4.142  0.0885 -0.4103 -0.2230
 1282SOL    HW1 3902   0.236   4.506   4.167 -0.6836 -2.7650 -0.2990
 1282SOL    HW2 3903   0.089   4.492   4.202 -1.1714  0.3269 -0.8952
 1283SOL     OW 3904   0.667   3.699   1.713  0.0654  0.0733  0.3527
 1283SOL    HW1 3905   0.673   3.781   1.762 -0.3669  0.1557  0.2757
 1283SOL    HW2 3906   0.589   3.710   1.658  0.1147 -0.3124  0.2032
 1284SOL     OW 3907   2.111   4.087   3.581 -0.5643 -0.4633  0.2425
 1284SOL    HW1 3908   2.199   4.091   3.543 -1.0280 -1.0797 -0.9681
 1284SOL    HW2 3909   2.054   4.069   3.506 -1.8614  0.9840  0.8221
 1285SOL     OW 3910   0.860   3.608   0.122 -0.7347 -0.3450 -0.3862
 1285SOL    HW1 3911   0.911   3.660   0.184 -1.6430 -0.0898  0.1652
 1285SOL    HW2 3912   0.871   3.518   0.151  0.1425 -0.3841 -0.8242
 1286SOL     OW 3913   3.546   1.017   3.122 -0.6758  0.5426  0.1260
 1286SOL    HW1 3914   3.560   1.100   3.167 -1.2161  0.0612  1.2211
 1286SOL    HW2 3915   3.452   1.004   3.123 -0.5134 -0.8754  1.4879
 1287SOL     OW 3916   4.303   3.472   3.558  0.3483 -0.3632 -0.1988
 1287SOL    HW1 3917   4.397   3.475   3.544  0.5217  1.5749  0.9538
 1287SOL    HW2 3918   4.285   3.547   3.615 -2.2743  1.0138 -2.5863
 1288SOL     OW 3919   4.157   1.778   4.278  0.4304  0.0526  0.1556
 1288SOL    HW1 3920   4.171   1.802   4.186  0.4659  0.4314  0.2565
 1288SOL    HW2 3921   4.111   1.695   4.274  2.0792 -0.8907 -0.1951
 1289SOL     OW 3922   4.926   4.152   0.179  0.1703  0.1862  0.4532
 1289SOL    HW1 3923   4.840   4.112   0.192  0.2183  0.8148  3.3725
 1289SOL    HW2 3924   4.971   4.093   0.119 -2.3717  0.0261 -1.4520
 1290SOL     OW 3925   1.360   1.300   4.039 -0.0094  0.1964 -0.1845
 1290SOL    HW1 3926   1.419   1.266   3.972 -0.0325 -0.6959  0.2193
 1290SOL    HW2 3927   1.389   1.256   4.120 -0.6707  0.4146  0.1772
 1291SOL     OW 3928   0.996   1.376   0.911 -0.0152 -0.4656 -0.2206
 1291SOL    HW1 3929   1.089   1.354   0.914  0.1048  0.0460 -0.1252
 1291SOL    HW2 3930   0.977   1.413   0.997 -0.5842 -1.6327  0.1738
 1292SOL     OW 3931   1.827   2.922   0.065  0.1914  0.0889 -0.2911
 1292SOL    HW1 3932   1.830   2.827   0.066  1.3315  0.1158  0.1043
 1292SOL    HW2 3933   1.764   2.945   0.133  1.3496 -0.3605  0.9721
 1293SOL     OW 3934   3.862   0.260   1.775 -0.1034  0.5901 -0.0210
 1293SOL    HW1 3935   3.876   0.350   1.744  2.2137  0.2990  0.0248
 1293SOL    HW2 3936   3.928   0.208   1.729 -2.2235 -1.3828 -1.0431
 1294SOL     OW 3937   4.671   4.198   2.090 -0.0990  0.2383 -0.0359
 1294SOL    HW1 3938   4.741   4.211   2.026 -1.4853 -0.0332 -1.6808
 1294SOL    HW2 3939   4.663   4.103   2.098 -0.7503  0.2593 -0.4031
 1295SOL     OW 3940   0.571   0.198   3.741 -0.0397 -0.5686  0.5936
 1295SOL    HW1 3941   0.650   0.247   3.763 -1.0869  0.5924  1.9248
 1295SOL    HW2 3942   0.600   0.134   3.676  1.7277  0.6417  0.1302
 1296SOL     OW 3943   2.960   1.914   1.322 -0.3785 -0.4801  0.0139
 1296SOL    HW1 3944   3.024   1.948   1.385  0.1830 -0.7296 -0.4093
 1296SOL    HW2 3945   2.887   1.885   1.376 -0.2808  0.1130  0.4847
 1297SOL     OW 3946   0.610   0.733   3.437  0.2113 -0.0239 -0.2508
 1297SOL    HW1 3947   0.694   0.749   3.396  0.4180 -0.4057  0.0153
 1297SOL    HW2 3948   0.627   0.664   3.502 -0.1103  0.5590  0.4701
 1298SOL     OW 3949   0.221   2.381   3.079  0.1253  0.0079 -0.7419
 1298SOL    HW1 3950   0.225   2.319   3.152 -2.0475  0.3270 -0.2638
 1298SOL    HW2 3951   0.259   2.334   3.005  1.8829 -0.5180  0.4313
 1299SOL     OW 3952   1.129   0.238   1.190 -0.7884  0.2294  0.8152
 1299SOL    HW1 3953   1.184   0.172   1.233  0.3228  1.0868  0.7696
 1299SOL    HW2 3954   1.060   0.257   1.253 -0.2903  0.0758  1.4185
 1300SOL     OW 3955   0.485   3.861   4.068  0.3216  0.0950  0.3046
 1300SOL    HW1 3956   0.470   3.863   4.163 -0.4054  0.7501  0.1833
 1300SOL    HW2 3957   0.514   3.772   4.050 -1.8110 -0.7487  0.8028
 1301SOL     OW 3958   4.999   3.326   0.228  0.4028  0.3156 -0.4245
 1301SOL    HW1 3959   4.910   3.360   0.220  0.0790 -0.7330 -1.5095
 1301SOL    HW2 3960   4.990   3.231   0.218  1.3393 -0.1117  2.0362
 1302SOL     OW 3961   2.899   1.491   1.192  0.5278 -0.3876  0.2162
 1302SOL    HW1 3962   2.898   1.494   1.287  0.5185  0.4080  0.1984
 1302SOL    HW2 3963   2.980   1.536   1.167  0.7349 -0.9536 -0.1376
 1303SOL     OW 3964   2.315   2.820   0.091 -0.5979 -0.2181 -0.2077
 1303SOL    HW1 3965   2.380   2.869   0.141  0.1169 -0.8816 -0.4548
 1303SOL    HW2 3966   2.231   2.855   0.119 -0.1640  0.1448  0.6737
 1304SOL     OW 3967   2.681   1.741   3.120 -0.3561  0.8455 -0.2147
 1304SOL    HW1 3968   2.691   1.706   3.208  0.8463  2.2391  0.2381
 1304SOL    HW2 3969   2.718   1.673   3.063 -0.8475  0.0791  0.3519
 1305SOL     OW 3970   3.866   2.934   1.871 -0.3048  0.1475  0.4160
 1305SOL    HW1 3971   3.863   2.934   1.776  1.1770 -1.1123  0.3385
 1305SOL    HW2 3972   3.787   2.982   1.898 -1.6470 -0.9617 -1.3919
 1306SOL     OW 3973   3.298   2.940   3.550 -0.0260  0.5218  0.5615
 1306SOL    HW1 3974   3.378   2.986   3.574 -0.0508  0.8822 -0.0320
 1306SOL    HW2 3975   3.236   3.009   3.527  0.2811  0.1848 -1.4190
 1307SOL     OW 3976   3.102   4.252   3.623  0.5009  0.1651  0.3339
 1307SOL    HW1 3977   3.044   4.177   3.636 -0.1454  0.5966  0.0033
 1307SOL    HW2 3978   3.189   4.220   3.645  0.2951 -0.8122 -0.2509
 1308SOL     OW 3979   2.989   4.837   3.217 -0.1892 -0.1595 -0.1781
 1308SOL    HW1 3980   3.053   4.906   3.203  0.6229 -0.5473  1.4586
 1308SOL    HW2 3981   3.039   4.756   3.211 -0.5003 -0.4676  1.1315
 1309SOL     OW 3982   2.016   2.299   4.192 -0.3272 -0.3448 -0.3146
 1309SOL    HW1 3983   1.941   2.341   4.149 -1.0208 -1.0849  0.1433
 1309SOL    HW2 3984   2.042   2.229   4.131  0.9807  0.8545 -1.1914
 1310SOL     OW 3985   2.756   4.267   2.392  0.5551 -0.6675 -0.0469
 1310SOL    HW1 3986   2.686   4.329   2.412  0.5555 -0.6596 -0.0707
 1310SOL    HW2 3987   2.755   4.260   2.297  1.5851  0.4742 -0.1532
 1311SOL     OW 3988   0.423   1.267   1.749  0.3860 -0.1478  0.7403
 1311SOL    HW1 3989   0.435   1.183   1.793  1.8565 -0.2766  0.1781
 1311SOL    HW2 3990   0.332   1.266   1.719  0.4609 -1.7017  0.4545
 1312SOL     OW 3991   1.487   2.991   4.532 -0.1057 -0.1516  0.1531
 1312SOL    HW1 3992   1.507   2.968   4.622  0.1305  0.6890  0.3169
 1312SOL    HW2 3993   1.524   2.919   4.480 -0.1207 -0.5640  0.7107
 1313SOL     OW 3994   4.465   3.295   2.010  0.1500 -0.3894 -0.1727
 1313SOL    HW1 3995   4.422   3.238   2.074  0.0322  1.0785  1.1325
 1313SOL    HW2 3996   4.429   3.382   2.029  0.5807  0.1829 -1.8586
 1314SOL     OW 3997   4.309   1.589   4.045 -0.1826 -0.0139  0.0243
 1314SOL    HW1 3998   4.396   1.612   4.011 -0.2607  0.0725 -0.1177
 1314SOL    HW2 3999   4.256   1.666   4.027 -0.2003  0.0668  0.4293
 1315SOL     OW 4000   2.758   3.698   2.229  1.1514 -0.3744  0.2884
 1315SOL    HW1 4001   2.847   3.725   2.248  0.9826  1.9043 -1.8068
 1315SOL    HW2 4002   2.718   3.772   2.184 -1.4191 -1.7909 -0.0014
 1316SOL     OW 4003   2.881   0.521   1.356  0.6455  0.4356  0.3823
 1316SOL    HW1 4004   2.853   0.495   1.443 -2.8085 -0.3241 -0.7984
 1316SOL    HW2 4005   2.889   0.617   1.361 -0.3190  0.4858  1.3441
 1317SOL     OW 4006   4.440   3.505   4.229  0.4854  0.5922 -0.2374
 1317SOL    HW1 4007   4.448   3.599   4.246 -0.9036  0.7984 -0.5604
 1317SOL    HW2 4008   4.411   3.468   4.313 -1.0658  0.8051 -0.6358
 1318SOL     OW 4009   4.753   2.620   2.926  0.6284 -0.4027  0.2672
 1318SOL    HW1 4010   4.747   2.703   2.974  0.3371 -0.3106  0.0812
 1318SOL    HW2 4011   4.666   2.610   2.886  0.6949 -0.7497  0.2089
 1319SOL     OW 4012   0.573   1.969   4.974  0.4199  0.2938  0.4089
 1319SOL    HW1 4013   0.616   2.051   4.999 -0.0985  0.3657  1.1135
 1319SOL    HW2 4014   0.594   1.958   4.882  2.6511 -0.1135  0.9074
 1320SOL     OW 4015   3.790   0.458   2.510 -0.3367 -0.1997  0.2722
 1320SOL    HW1 4016   3.858   0.406   2.553  1.1323  0.2774 -1.3784
 1320SOL    HW2 4017   3.828   0.483   2.426 -2.0565  1.2276 -0.1416
 1321SOL     OW 4018   2.713   0.900   0.640  0.5017  0.0122 -0.2613
 1321SOL    HW1 4019   2.799   0.942   0.650 -0.4423  1.6476  2.0417
 1321SOL    HW2 4020   2.652   0.962   0.681 -1.3111 -2.6644  1.3457
 1322SOL     OW 4021   0.124   2.984   2.499 -0.1066  0.2028 -0.1205
 1322SOL    HW1 4022   0.097   2.955   2.586 -1.2003  0.5698 -0.3200
 1322SOL    HW2 4023   0.216   3.007   2.509 -0.3000  0.5404  1.0165
 1323SOL     OW 4024   2.040   4.595   2.615 -0.1927  0.7133  0.3962
 1323SOL    HW1 4025   2.055   4.550   2.698 -1.5296 -1.3590 -0.3950
 1323SOL    HW2 4026   1.951   4.630   2.623 -0.1330  0.9459  0.0276
 1324SOL     OW 4027   4.330   1.489   1.655  0.1129 -0.2162 -0.0073
 1324SOL    HW1 4028   4.369   1.462   1.738  0.6484  0.1543 -0.1353
 1324SOL    HW2 4029   4.389   1.455   1.588 -1.0769 -1.8165 -0.3313
 1325SOL     OW 4030   2.548   0.467   0.949 -0.4194 -0.4353  0.2101
 1325SOL    HW1 4031   2.626   0.461   1.003 -1.3017  0.3512  1.6264
 1325SOL    HW2 4032   2.571   0.420   0.868  1.1933 -0.9606  0.9357
 1326SOL     OW 4033   3.891   0.727   4.836 -0.1135 -0.6715  0.1270
 1326SOL    HW1 4034   3.940   0.782   4.897 -0.8129 -1.4034  1.3865
 1326SOL    HW2 4035   3.940   0.645   4.832 -0.4513 -0.8830  0.2654
 1327SOL     OW 4036   2.495   1.214   1.493 -0.6847 -0.0623  0.2410
 1327SOL    HW1 4037   2.488   1.276   1.566 -0.6355  0.4388 -0.1784
 1327SOL    HW2 4038   2.579   1.235   1.452 -0.8516 -0.1422 -0.1400
 1328SOL     OW 4039   3.488   3.869   4.647 -0.2656 -0.4096 -0.5893
 1328SOL    HW1 4040   3.439   3.796   4.683 -0.5972  0.4472  0.8009
 1328SOL    HW2 4041   3.474   3.864   4.552 -1.3515 -1.3638 -0.4003
 1329SOL     OW 4042   1.855   2.974   3.215 -0.2437 -0.1669  0.8422
 1329SOL    HW1 4043   1.865   3.041   3.148  3.3533 -0.7577  0.6013
 1329SOL    HW2 4044   1.846   2.892   3.166  1.1531 -0.4606  1.0411
 1330SOL     OW 4045   4.177   3.274   2.350 -0.2603 -0.1641  0.0079
 1330SOL    HW1 4046   4.250   3.231   2.393  0.9364  1.6426 -0.1314
 1330SOL    HW2 4047   4.202   3.366   2.344 -1.6652  0.1746 -1.8626
 1331SOL     OW 4048   1.058   2.496   2.797 -0.6252  0.6111 -0.0163
 1331SOL    HW1 4049   1.090   2.498   2.707 -0.9156  1.5249 -0.1094
 1331SOL    HW2 4050   1.081   2.408   2.829  1.5076  1.0276 -0.2356
 1332SOL     OW 4051   4.913   2.668   1.226  0.1215 -0.0644 -0.1147
 1332SOL    HW1 4052   4.833   2.717   1.213  0.3541  0.2110 -0.5264
 1332SOL    HW2 4053   4.924   2.664   1.321 -0.6021 -0.4739 -0.0458
 1333SOL     OW 4054   1.658   2.553   0.297  0.1573 -0.2016 -0.0518
 1333SOL    HW1 4055   1.751   2.558   0.321  0.2742 -1.0355 -0.2887
 1333SOL    HW2 4056   1.648   2.466   0.258 -0.6590  0.0019 -0.3238
 1334SOL     OW 4057   4.157   3.654   1.347 -0.2022 -0.2431 -0.1486
 1334SOL    HW1 4058   4.205   3.714   1.404 -0.7701  1.1046 -1.0534
 1334SOL    HW2 4059   4.186   3.567   1.375  0.0168  0.3926  1.7557
 1335SOL     OW 4060   2.625   3.481   3.500  0.6512  0.1575  0.7103
 1335SOL    HW1 4061   2.587   3.485   3.588  0.4734 -0.2341  0.6500
 1335SOL    HW2 4062   2.688   3.409   3.505  0.2813 -0.1947  0.3775
 1336SOL     OW 4063   4.401   1.907   4.676  0.1001  0.1391 -0.0465
 1336SOL    HW1 4064   4.475   1.968   4.673  1.3508 -1.2982  0.2483
 1336SOL    HW2 4065   4.394   1.872   4.587  0.4318 -0.4614  0.1573
 1337SOL     OW 4066   4.358   0.701   1.666 -0.8260  0.8486  0.3209
 1337SOL    HW1 4067   4.339   0.764   1.596 -0.8183 -0.3773 -0.8134
 1337SOL    HW2 4068   4.332   0.616   1.630  0.3058  0.0336  1.3643
 1338SOL     OW 4069   0.203   0.414   1.351  0.5412 -0.2564  0.0102
 1338SOL    HW1 4070   0.242   0.438   1.435 -0.7106  1.6408  0.1092
 1338SOL    HW2 4071   0.120   0.371   1.374  0.6102 -0.5376 -0.2521
 1339SOL     OW 4072   4.963   2.468   3.489  0.4982 -0.3977  0.2781
 1339SOL    HW1 4073   4.999   2.416   3.561  0.1305  0.8112  1.3652
 1339SOL    HW2 4074   4.907   2.407   3.441  0.1285 -1.0350  1.4842
 1340SOL     OW 4075   1.368   2.418   3.282  0.1718 -0.2757 -0.6070
 1340SOL    HW1 4076   1.355   2.333   3.241  0.4208 -0.3787 -0.4723
 1340SOL    HW2 4077   1.459   2.440   3.263 -0.5567  1.1451 -2.8981
 1341SOL     OW 4078   4.405   1.371   0.179  0.5954  0.2390  0.3118
 1341SOL    HW1 4079   4.452   1.357   0.261  0.6659 -1.3091  0.0437
 1341SOL    HW2 4080   4.453   1.441   0.135 -0.5945  2.5479  2.4230
 1342SOL     OW 4081   4.812   3.818   1.941 -0.3968 -0.2540 -0.2670
 1342SOL    HW1 4082   4.902   3.849   1.936  0.3146 -2.2320 -0.7906
 1342SOL    HW2 4083   4.792   3.815   2.034  0.8367 -1.7204 -0.0191
 1343SOL     OW 4084   1.990   1.285   1.421 -0.4512 -0.1713 -0.2327
 1343SOL    HW1 4085   2.049   1.263   1.349 -0.5711  0.2075 -0.4537
 1343SOL    HW2 4086   2.009   1.220   1.489  0.0810 -0.1707 -0.3736
 1344SOL     OW 4087   1.822   3.425   2.956 -0.1112  0.5532 -0.2651
 1344SOL    HW1 4088   1.838   3.411   3.049  1.7444  1.9979 -0.3108
 1344SOL    HW2 4089   1.803   3.337   2.922 -0.2130 -0.0850  1.3439
 1345SOL     OW 4090   4.581   2.390   1.139  0.3026 -0.4195  0.5820
 1345SOL    HW1 4091   4.569   2.485   1.130 -1.6115 -0.8063 -2.1179
 1345SOL    HW2 4092   4.532   2.368   1.219  0.7688  0.8366  1.2428
 1346SOL     OW 4093   2.698   4.766   1.768 -0.4183 -0.0094  0.2553
 1346SOL    HW1 4094   2.617   4.719   1.747 -1.0993  1.4713 -0.5659
 1346SOL    HW2 4095   2.676   4.820   1.843  0.5254 -1.3534  1.5489
 1347SOL     OW 4096   4.206   3.351   2.920 -0.7126  0.5385 -0.2798
 1347SOL    HW1 4097   4.174   3.364   3.010 -0.7708 -1.6864  0.0742
 1347SOL    HW2 4098   4.135   3.306   2.875  0.0864 -0.1656 -0.8641
 1348SOL     OW 4099   0.965   2.268   1.205  0.5694  0.1645 -0.2468
 1348SOL    HW1 4100   0.887   2.322   1.218  0.4218 -0.0786 -0.1059
 1348SOL    HW2 4101   0.949   2.191   1.259  0.9994  0.2053 -0.0654
 1349SOL     OW 4102   0.505   2.500   0.774 -0.3327  0.6681  0.4352
 1349SOL    HW1 4103   0.506   2.408   0.749 -2.1986  0.7179  0.0857
 1349SOL    HW2 4104   0.574   2.540   0.720 -0.2817 -0.3127 -0.2368
 1350SOL     OW 4105   1.533   4.162   0.899 -0.0360  0.2669  0.1873
 1350SOL    HW1 4106   1.490   4.205   0.825 -0.2206 -1.5411 -0.8119
 1350SOL    HW2 4107   1.612   4.214   0.914 -0.7998  1.5910 -0.2226
 1351SOL     OW 4108   3.166   0.270   3.912 -0.1435 -0.3760  0.4066
 1351SOL    HW1 4109   3.228   0.292   3.843 -0.1214  0.0739  0.5613
 1351SOL    HW2 4110   3.080   0.285   3.873 -0.1182  0.7128  0.7292
 1352SOL     OW 4111   4.544   1.202   4.531 -0.0120 -0.5252 -0.4720
 1352SOL    HW1 4112   4.510   1.157   4.453 -0.5687 -1.3197  0.2135
 1352SOL    HW2 4113   4.470   1.256   4.561  0.6191  0.8120 -1.2328
 1353SOL     OW 4114   1.757   1.061   2.151 -0.5318 -0.0800  0.5167
 1353SOL    HW1 4115   1.813   1.138   2.156 -0.2124 -0.2309 -0.5703
 1353SOL    HW2 4116   1.679   1.090   2.103  0.2499 -0.7868 -1.2454
 1354SOL     OW 4117   2.305   3.856   1.981  0.2299  0.5735 -0.1724
 1354SOL    HW1 4118   2.310   3.824   2.071 -0.4048 -1.7134 -0.8691
 1354SOL    HW2 4119   2.347   3.788   1.929 -1.0635  0.9374 -1.7724
 1355SOL     OW 4120   0.410   3.329   2.563  0.3557 -0.0182  0.1919
 1355SOL    HW1 4121   0.456   3.385   2.500 -0.2596  0.3218  0.0332
 1355SOL    HW2 4122   0.449   3.352   2.648  1.0203 -0.3067 -0.0290
 1356SOL     OW 4123   1.610   2.178   4.908  0.0181 -0.0030 -0.0664
 1356SOL    HW1 4124   1.675   2.130   4.960 -0.6226  0.8220  1.5809
 1356SOL    HW2 4125   1.537   2.116   4.900  0.3340 -0.3292 -0.4589
 1357SOL     OW 4126   2.608   0.216   0.246 -0.2430 -0.2665 -0.7090
 1357SOL    HW1 4127   2.629   0.251   0.332  1.1390  0.7419 -1.4221
 1357SOL    HW2 4128   2.529   0.265   0.220  2.2097  3.3867 -2.1354
 1358SOL     OW 4129   0.585   1.783   4.452 -0.2388 -0.2139 -0.4595
 1358SOL    HW1 4130   0.501   1.751   4.483 -0.3571  0.7298  0.2753
 1358SOL    HW2 4131   0.581   1.777   4.357 -0.1439 -2.5491 -0.3680
 1359SOL     OW 4132   1.317   4.497   4.300 -0.6674  0.0614 -0.0244
 1359SOL    HW1 4133   1.381   4.425   4.297  2.3207  2.4677  0.9472
 1359SOL    HW2 4134   1.277   4.497   4.213  1.9098 -0.5883 -1.3011
 1360SOL     OW 4135   3.961   0.386   2.247  0.2166  0.1305 -0.0765
 1360SOL    HW1 4136   4.014   0.437   2.186 -0.0426 -1.5715 -1.7765
 1360SOL    HW2 4137   3.902   0.335   2.192  0.5147 -2.0780  1.5227
 1361SOL     OW 4138   1.310   4.840   0.704 -0.4441  0.1730  0.1258
 1361SOL    HW1 4139   1.269   4.901   0.764  0.8460  1.1371  0.0496
 1361SOL    HW2 4140   1.403   4.844   0.724 -0.2176 -1.0104 -0.5712
 1362SOL     OW 4141   0.184   1.036   0.755 -0.0897 -0.7353  0.2252
 1362SOL    HW1 4142   0.144   1.044   0.841 -0.8234 -2.3040  0.0481
 1362SOL    HW2 4143   0.276   1.057   0.770 -0.4273  0.1928  1.1483
 1363SOL     OW 4144   1.035   4.722   4.032  0.4755 -0.0314 -0.6837
 1363SOL    HW1 4145   1.084   4.793   3.990  1.8138  0.6601  1.8380
 1363SOL    HW2 4146   1.103   4.663   4.065 -0.4417 -0.0018  1.3574
 1364SOL     OW 4147   4.039   0.532   4.558 -0.2887 -0.8165  0.0913
 1364SOL    HW1 4148   4.039   0.570   4.645 -1.2685  0.4392 -0.4290
 1364SOL    HW2 4149   4.082   0.597   4.503 -0.8888 -0.9951 -0.6039
 1365SOL     OW 4150   0.590   3.275   1.406  0.1013  0.1193 -0.0884
 1365SOL    HW1 4151   0.659   3.225   1.363 -0.2442 -0.2414 -0.2287
 1365SOL    HW2 4152   0.609   3.268   1.499  0.6811  0.6531 -0.1547
 1366SOL     OW 4153   2.600   0.098   1.248  0.2898 -0.1703  0.1535
 1366SOL    HW1 4154   2.519   0.149   1.250 -0.4418 -1.0047 -2.8849
 1366SOL    HW2 4155   2.573   0.009   1.269  0.5955 -0.3022 -0.0095
 1367SOL     OW 4156   4.827   2.604   0.759  0.1104  0.7979  0.0592
 1367SOL    HW1 4157   4.841   2.521   0.805 -0.1469  0.6965 -0.0453
 1367SOL    HW2 4158   4.915   2.639   0.745  0.7848 -1.9041 -4.5135
 1368SOL     OW 4159   1.761   0.065   2.245  0.2278  0.2344 -0.4929
 1368SOL    HW1 4160   1.705   0.128   2.291  0.4788  1.4157 -1.7219
 1368SOL    HW2 4161   1.844   0.068   2.292 -0.1967 -0.2357  0.3003
 1369SOL     OW 4162   2.478   3.563   4.317 -0.1014  0.0600  0.4591
 1369SOL    HW1 4163   2.406   3.524   4.268  0.9936 -0.7182 -0.6115
 1369SOL    HW2 4164   2.478   3.655   4.290 -0.9267  0.1454  0.7585
 1370SOL     OW 4165   3.614   3.443   1.444  0.0846 -1.0821  0.2852
 1370SOL    HW1 4166   3.644   3.446   1.535 -0.6058 -1.7602  0.5430
 1370SOL    HW2 4167   3.575   3.357   1.434 -2.8864  0.1408  0.3365
 1371SOL     OW 4168   1.545   4.196   0.619 -0.6247 -0.3572  0.0045
 1371SOL    HW1 4169   1.520   4.268   0.561  0.8396 -1.8648 -2.7615
 1371SOL    HW2 4170   1.615   4.150   0.571  0.2600 -2.1557  2.7471
 1372SOL     OW 4171   3.820   1.009   2.642 -0.4139  0.1432 -0.4625
 1372SOL    HW1 4172   3.766   0.930   2.633  0.3643 -0.6109  1.0339
 1372SOL    HW2 4173   3.869   1.015   2.560 -1.3601 -0.2473 -1.0651
 1373SOL     OW 4174   2.419   2.042   1.050 -0.0245 -0.1765  0.5121
 1373SOL    HW1 4175   2.478   2.109   1.086  0.0456  1.8427 -2.8783
 1373SOL    HW2 4176   2.473   1.995   0.987 -1.2475 -0.2824 -0.4927
 1374SOL     OW 4177   4.535   0.920   4.747  0.1750  0.1439  0.0395
 1374SOL    HW1 4178   4.528   0.900   4.841  0.4323  1.0249  0.2537
 1374SOL    HW2 4179   4.514   1.013   4.741  1.0593  0.3109 -0.6664
 1375SOL     OW 4180   4.682   3.894   4.282 -0.1879  0.3236 -0.3948
 1375SOL    HW1 4181   4.766   3.900   4.328 -0.1988  0.3752 -0.3817
 1375SOL    HW2 4182   4.616   3.900   4.351 -0.2128  0.8917 -0.4620
 1376SOL     OW 4183   3.024   2.149   3.875  0.4064  0.0736 -0.2937
 1376SOL    HW1 4184   3.085   2.223   3.867  1.7429 -0.5449  2.7733
 1376SOL    HW2 4185   3.010   2.139   3.969 -1.2435 -2.4000 -0.7073
 1377SOL     OW 4186   4.404   3.401   1.233  0.3460  0.4252 -0.0330
 1377SOL    HW1 4187   4.410   3.440   1.146  0.8274  0.5998  0.0743
 1377SOL    HW2 4188   4.411   3.306   1.217 -0.9563  0.3649 -0.3047
 1378SOL     OW 4189   1.546   1.758   4.113  0.4947 -0.5084 -0.3816
 1378SOL    HW1 4190   1.515   1.721   4.031  0.2740 -1.1347 -0.0220
 1378SOL    HW2 4191   1.467   1.782   4.161  0.6318  0.5487 -0.6466
 1379SOL     OW 4192   4.052   2.249   4.688  0.2172 -0.0370  0.0125
 1379SOL    HW1 4193   4.057   2.251   4.592  0.5545 -0.5231  0.0193
 1379SOL    HW2 4194   4.058   2.156   4.710  1.2667  0.1467  0.5634
 1380SOL     OW 4195   1.103   1.696   1.104  0.1112  0.4792 -0.4890
 1380SOL    HW1 4196   1.090   1.781   1.146 -0.7879 -0.4454  1.2431
 1380SOL    HW2 4197   1.023   1.682   1.054 -0.5161 -0.0371  0.6008
 1381SOL     OW 4198   4.255   3.655   3.768 -0.5072  0.4099 -0.0468
 1381SOL    HW1 4199   4.339   3.694   3.748 -0.8388  1.0950 -0.1186
 1381SOL    HW2 4200   4.275   3.586   3.832  0.1869  0.0982 -0.5865
 1382SOL     OW 4201   1.267   0.228   0.766 -0.5244 -0.3103  0.2347
 1382SOL    HW1 4202   1.210   0.164   0.808  0.6019 -1.4277  0.1442
 1382SOL    HW2 4203   1.290   0.289   0.836  1.4305 -2.2204  1.4110
 1383SOL     OW 4204   3.193   0.253   1.335  0.0372  0.4728  0.0832
 1383SOL    HW1 4205   3.130   0.228   1.403 -0.7398 -0.0462 -0.7955
 1383SOL    HW2 4206   3.265   0.191   1.345 -0.5415 -0.2625 -0.2005
 1384SOL     OW 4207   2.940   4.113   4.616  0.4857  0.5270 -0.5075
 1384SOL    HW1 4208   2.937   4.037   4.676  1.5059  1.6080  0.9886
 1384SOL    HW2 4209   3.028   4.110   4.579 -0.3339 -0.4810 -2.5108
 1385SOL     OW 4210   1.274   1.247   0.170  0.5327 -0.4762  0.0591
 1385SOL    HW1 4211   1.247   1.192   0.095 -1.9562 -1.3198  1.4478
 1385SOL    HW2 4212   1.308   1.184   0.234 -0.0986 -0.1402  0.7364
 1386SOL     OW 4213   0.638   3.648   3.775 -0.3434 -0.0396  0.1306
 1386SOL    HW1 4214   0.679   3.577   3.824 -0.8627 -0.3397  0.1334
 1386SOL    HW2 4215   0.687   3.726   3.800  0.1241 -0.3727  0.2507
 1387SOL     OW 4216   2.638   1.594   2.751  0.5004 -0.3902 -0.2273
 1387SOL    HW1 4217   2.650   1.667   2.689  1.9099  0.2149  0.7126
 1387SOL    HW2 4218   2.726   1.557   2.761  0.2389 -0.6717  1.1662
 1388SOL     OW 4219   3.978   4.296   1.713 -0.0278  0.0226 -0.0167
 1388SOL    HW1 4220   3.979   4.322   1.805  1.9780  2.6858 -0.6801
 1388SOL    HW2 4221   4.026   4.213   1.711 -2.6427 -1.6774  1.5993
 1389SOL     OW 4222   2.516   0.547   4.549 -0.1551  0.4154  0.1645
 1389SOL    HW1 4223   2.461   0.620   4.579 -0.1566  0.1490  0.8281
 1389SOL    HW2 4224   2.591   0.548   4.609 -0.4646 -0.5173  0.5924
 1390SOL     OW 4225   3.336   3.504   1.050 -0.1912 -0.0694  0.4105
 1390SOL    HW1 4226   3.245   3.535   1.044 -0.0139  0.3068 -0.5038
 1390SOL    HW2 4227   3.374   3.555   1.121 -0.8801 -0.7356  1.2879
 1391SOL     OW 4228   0.177   2.660   4.968  0.1758 -0.4920  0.4965
 1391SOL    HW1 4229   0.119   2.633   4.897  0.4742 -0.0627  0.0836
 1391SOL    HW2 4230   0.133   2.735   5.007  1.3264  1.0473 -1.0280
 1392SOL     OW 4231   2.509   4.517   3.190 -0.1704  0.0696  0.0472
 1392SOL    HW1 4232   2.442   4.468   3.237  0.0843 -2.4614 -1.9720
 1392SOL    HW2 4233   2.469   4.537   3.105  0.6900  1.0364 -0.1545
 1393SOL     OW 4234   1.280   1.112   1.381 -0.8832 -0.0001  0.3866
 1393SOL    HW1 4235   1.339   1.182   1.408 -1.0418  0.9573 -1.5796
 1393SOL    HW2 4236   1.333   1.058   1.321 -1.2422 -0.6525  0.6430
 1394SOL     OW 4237   0.871   3.753   3.581  0.0509  0.2935 -0.8188
 1394SOL    HW1 4238   0.891   3.685   3.517  1.8746  2.1790 -2.3672
 1394SOL    HW2 4239   0.936   3.742   3.650  0.1022  0.2687 -0.8717
 1395SOL     OW 4240   4.406   1.977   4.127 -0.9564  0.0130  0.4883
 1395SOL    HW1 4241   4.451   1.913   4.182  2.0918  0.2164 -1.5139
 1395SOL    HW2 4242   4.440   1.960   4.039 -1.8169  2.8821 -0.5037
 1396SOL     OW 4243  -0.012   2.409   1.153 -0.1775  0.0977  0.8130
 1396SOL    HW1 4244   0.083   2.412   1.144 -0.2500  0.8940  0.2263
 1396SOL    HW2 4245  -0.040   2.500   1.147 -1.1267 -0.2576 -0.5983
 1397SOL     OW 4246   3.317   0.720   0.856 -0.1364 -0.3883  0.1174
 1397SOL    HW1 4247   3.340   0.657   0.925  0.5741 -0.2988 -0.0354
 1397SOL    HW2 4248   3.399   0.765   0.836 -0.2582 -0.6687 -1.0498
 1398SOL     OW 4249   3.928   2.024   3.834 -0.2379 -0.6626  0.2627
 1398SOL    HW1 4250   3.987   2.036   3.908 -1.8030 -1.0923  1.6503
 1398SOL    HW2 4251   3.973   2.065   3.760  2.1821 -1.7738  1.0189
 1399SOL     OW 4252   0.812   2.202   2.732 -0.0138  0.2685 -0.0473
 1399SOL    HW1 4253   0.904   2.220   2.712  0.1530  1.0043  1.2874
 1399SOL    HW2 4254   0.815   2.128   2.792 -0.3556 -0.2290 -0.6302
 1400SOL     OW 4255   2.805   0.873   4.153  0.0904 -0.1032  0.2341
 1400SOL    HW1 4256   2.854   0.791   4.159  0.7233  0.3312  1.4037
 1400SOL    HW2 4257   2.867   0.940   4.182 -0.3383  0.8360 -0.9356
 1401SOL     OW 4258   0.559   3.575   0.394  0.2171  0.1424  0.3734
 1401SOL    HW1 4259   0.476   3.530   0.408 -0.3720  1.4623  1.4303
 1401SOL    HW2 4260   0.579   3.563   0.302 -1.8135  0.8541 -0.2028
 1402SOL     OW 4261   3.447   1.977   4.062  0.5301  0.3550  0.0401
 1402SOL    HW1 4262   3.438   1.890   4.100  2.0610  0.6796  1.2364
 1402SOL    HW2 4263   3.451   2.037   4.137  1.1620  1.2719 -0.6927
 1403SOL     OW 4264   4.795   2.152   1.105 -0.5590  0.3037  0.4024
 1403SOL    HW1 4265   4.748   2.097   1.168 -0.7455 -0.0386 -0.0259
 1403SOL    HW2 4266   4.760   2.239   1.117 -1.1293  0.0956  0.2637
 1404SOL     OW 4267   1.123   0.217   3.212 -0.7817 -0.2569 -0.3364
 1404SOL    HW1 4268   1.211   0.231   3.177 -0.5338  0.1077  0.4211
 1404SOL    HW2 4269   1.085   0.150   3.155  0.4371 -1.3384  0.0805
 1405SOL     OW 4270   3.537   3.944   4.390  0.5743 -0.7253  0.2253
 1405SOL    HW1 4271   3.631   3.933   4.380  0.6038 -1.1954  0.9622
 1405SOL    HW2 4272   3.526   4.029   4.432  0.5095  0.6907 -2.4595
 1406SOL     OW 4273   4.795   2.870   2.239  0.0299 -0.2960  0.4088
 1406SOL    HW1 4274   4.824   2.944   2.185 -0.4606 -1.7176 -1.9278
 1406SOL    HW2 4275   4.733   2.909   2.301 -0.1181  1.2636 -0.6569
 1407SOL     OW 4276   1.069   4.126   4.417 -0.1075  0.6056  0.3435
 1407SOL    HW1 4277   1.155   4.085   4.426 -0.3732  0.2040  1.1090
 1407SOL    HW2 4278   1.080   4.213   4.455 -0.0042  0.6130  0.2983
 1408SOL     OW 4279   1.824   4.787   0.266  0.0394 -0.1720 -0.7901
 1408SOL    HW1 4280   1.891   4.855   0.263  0.1793 -0.0533  1.9554
 1408SOL    HW2 4281   1.873   4.705   0.269  0.1698 -0.0858  1.1968
 1409SOL     OW 4282   1.330   1.874   4.240 -0.4329 -0.0375 -0.1825
 1409SOL    HW1 4283   1.321   1.831   4.325  1.4835 -0.6104 -0.2382
 1409SOL    HW2 4284   1.244   1.914   4.225 -1.8945 -2.6289  0.5399
 1410SOL     OW 4285   1.183   0.987   0.890  0.8508 -0.7170 -0.2967
 1410SOL    HW1 4286   1.214   1.069   0.852  1.7158 -0.3782  1.0677
 1410SOL    HW2 4287   1.190   0.924   0.818  3.3757 -0.3363 -0.4957
 1411SOL     OW 4288   3.746   2.014   1.801  0.7177 -0.3325  0.3701
 1411SOL    HW1 4289   3.667   1.965   1.824 -1.3149  1.8535 -1.3293
 1411SOL    HW2 4290   3.772   2.057   1.882 -0.8596  0.1857  0.6408
 1412SOL     OW 4291   2.457   4.583   1.790  0.1144 -0.7414 -0.1013
 1412SOL    HW1 4292   2.416   4.581   1.704 -0.9447 -1.6612  0.4001
 1412SOL    HW2 4293   2.492   4.495   1.802  1.7909 -0.1437 -0.2744
 1413SOL     OW 4294   1.895   2.187   4.704  0.1698 -0.6338  0.0408
 1413SOL    HW1 4295   1.914   2.141   4.622  1.3035 -0.1392  0.0011
 1413SOL    HW2 4296   1.807   2.223   4.691  1.0869  1.1553 -1.7983
 1414SOL     OW 4297   3.060   1.237   4.372  0.1484  0.3127  0.2683
 1414SOL    HW1 4298   3.068   1.222   4.466 -0.4919  0.8619  0.4224
 1414SOL    HW2 4299   3.032   1.328   4.365 -2.5959 -0.4658 -0.2837
 1415SOL     OW 4300   0.416   1.253   4.520  0.0618  0.3340  0.3773
 1415SOL    HW1 4301   0.498   1.271   4.567  0.5583 -0.3078 -0.2133
 1415SOL    HW2 4302   0.380   1.176   4.563 -1.1919  1.6326  1.8049
 1416SOL     OW 4303   0.552   1.141   0.750 -0.1871  0.2395  0.1673
 1416SOL    HW1 4304   0.620   1.184   0.801  0.7158  0.3306 -1.0733
 1416SOL    HW2 4305   0.502   1.213   0.712 -0.9526  0.1724  1.0167
 1417SOL     OW 4306   0.197   4.676   3.829 -0.7224  0.0504  0.1012
 1417SOL    HW1 4307   0.141   4.705   3.901 -0.6650 -0.5764  0.4029
 1417SOL    HW2 4308   0.185   4.581   3.826  0.7737 -0.1707  0.5397
 1418SOL     OW 4309   3.179   4.891   4.957 -0.2777  0.0659  0.5871
 1418SOL    HW1 4310   3.241   4.915   5.026  0.9311 -0.5447 -0.2471
 1418SOL    HW2 4311   3.189   4.960   4.892 -1.0227  0.3561  0.7764
 1419SOL     OW 4312   2.509   4.557   4.346 -0.1701  0.9601 -0.1760
 1419SOL    HW1 4313   2.498   4.627   4.282  0.7330 -0.5949 -2.1325
 1419SOL    HW2 4314   2.548   4.484   4.297 -0.6688 -0.7963  1.8444
 1420SOL     OW 4315   3.976   4.067   4.517 -0.6118  0.0933  0.5682
 1420SOL    HW1 4316   4.027   4.041   4.594  1.4617  2.8825  0.3030
 1420SOL    HW2 4317   3.934   4.149   4.543  0.5574  1.3850 -1.3494
 1421SOL     OW 4318   3.481   0.337   0.905 -0.1124 -0.3863  0.3723
 1421SOL    HW1 4319   3.396   0.295   0.902 -0.7600  0.9463 -0.8285
 1421SOL    HW2 4320   3.537   0.283   0.849 -0.1027 -1.3211  1.2437
 1422SOL     OW 4321   4.757   2.863   1.534  0.5899 -0.1194 -0.4170
 1422SOL    HW1 4322   4.834   2.837   1.483  0.2658 -0.5272 -0.7055
 1422SOL    HW2 4323   4.788   2.865   1.625  0.8386 -0.6759 -0.4847
 1423SOL     OW 4324   1.042   1.710   0.188  0.2510  0.6243 -0.0204
 1423SOL    HW1 4325   1.097   1.716   0.110  2.3577 -1.4380  1.2012
 1423SOL    HW2 4326   0.966   1.659   0.160  2.2594 -2.5200 -0.2447
 1424SOL     OW 4327   0.954   1.044   4.793 -0.5097  0.0014 -0.3715
 1424SOL    HW1 4328   0.969   0.953   4.770 -1.6618  0.4094 -3.0397
 1424SOL    HW2 4329   0.867   1.045   4.833  0.3403 -0.2900  1.6253
 1425SOL     OW 4330   1.263   1.667   1.638  0.2430 -0.2283  0.2338
 1425SOL    HW1 4331   1.357   1.660   1.622  0.5088  0.0135  1.5163
 1425SOL    HW2 4332   1.244   1.760   1.628  0.5141  0.0108  1.6558
 1426SOL     OW 4333   4.936   4.070   3.150  0.3381 -0.0288 -0.6743
 1426SOL    HW1 4334   4.927   3.984   3.108 -1.3185  1.0358 -2.6744
 1426SOL    HW2 4335   4.848   4.107   3.149  0.2927  0.4092  3.2820
 1427SOL     OW 4336   4.404   1.040   0.886  0.4819  0.0585  0.4795
 1427SOL    HW1 4337   4.378   1.127   0.855 -0.0910 -0.9109 -2.0114
 1427SOL    HW2 4338   4.483   1.056   0.938  0.5425  2.0240 -0.1149
 1428SOL     OW 4339   3.563   4.165   2.480  0.0274  0.9027  0.1401
 1428SOL    HW1 4340   3.503   4.178   2.407  0.7874  2.2418 -0.2758
 1428SOL    HW2 4341   3.606   4.250   2.492  0.6424  0.4351  1.4982
 1429SOL     OW 4342   3.114   2.183   4.911 -0.2541  0.3696 -0.2324
 1429SOL    HW1 4343   3.126   2.236   4.832 -0.3730 -0.7845 -1.0566
 1429SOL    HW2 4344   3.187   2.121   4.910  0.4964  1.1766  1.2946
 1430SOL     OW 4345   1.508   2.038   3.753  0.1068  0.3190  0.1988
 1430SOL    HW1 4346   1.584   1.983   3.737 -0.4273 -0.1023 -0.9207
 1430SOL    HW2 4347   1.459   1.993   3.823 -0.9773 -1.3369 -1.5390
 1431SOL     OW 4348   0.964   0.437   3.202  0.0432 -0.1706  0.1130
 1431SOL    HW1 4349   1.021   0.361   3.189 -1.2630 -1.0067 -0.9501
 1431SOL    HW2 4350   0.918   0.418   3.283 -0.1573 -0.4443 -0.0618
 1432SOL     OW 4351   1.741   1.117   1.851  0.1694 -0.3489 -0.4616
 1432SOL    HW1 4352   1.787   1.105   1.934 -0.1578 -2.1516 -0.5043
 1432SOL    HW2 4353   1.739   1.030   1.812 -0.0117  0.3895 -2.2040
 1433SOL     OW 4354   4.561   4.054   1.173  0.7623 -0.0742  0.0782
 1433SOL    HW1 4355   4.624   3.990   1.206 -0.0906 -1.1861 -0.3567
 1433SOL    HW2 4356   4.484   4.044   1.230  0.4378  0.2179 -0.2982
 1434SOL     OW 4357   3.069   3.049   2.708 -0.1764  0.0308 -0.0943
 1434SOL    HW1 4358   3.047   3.130   2.753  1.2261  1.1078 -1.2398
 1434SOL    HW2 4359   2.985   3.010   2.685 -0.9065  2.0442 -1.0347
 1435SOL     OW 4360   0.265   0.547   2.752 -0.4203  0.1947  0.4098
 1435SOL    HW1 4361   0.288   0.565   2.661 -1.2977 -0.9092 -0.0521
 1435SOL    HW2 4362   0.184   0.594   2.766 -0.8103 -0.4303  0.3015
 1436SOL     OW 4363   1.379   0.454   4.907  0.0850 -0.3738  0.2836
 1436SOL    HW1 4364   1.320   0.459   4.982  1.1607  0.2082  1.1233
 1436SOL    HW2 4365   1.358   0.532   4.855  0.3691  0.0463  0.7895
 1437SOL     OW 4366   2.670   3.585   1.474  0.1491  0.0808  0.0336
 1437SOL    HW1 4367   2.622   3.512   1.514  0.1060  0.1683  0.1445
 1437SOL    HW2 4368   2.756   3.583   1.516  1.3727 -1.9391 -2.2768
 1438SOL     OW 4369   4.141   4.817   1.784 -0.0412 -0.3996 -0.3590
 1438SOL    HW1 4370   4.090   4.873   1.842  0.5069 -1.2268  0.9659
 1438SOL    HW2 4371   4.093   4.819   1.701 -0.1439  1.8485 -0.3190
 1439SOL     OW 4372   2.187   4.821   3.520 -0.2235 -0.1088  0.6281
 1439SOL    HW1 4373   2.134   4.900   3.506  0.9378  0.6789  0.4778
 1439SOL    HW2 4374   2.276   4.855   3.533  0.4824 -1.4602 -0.4546
 1440SOL     OW 4375   0.324   2.065   1.786  0.2904  0.4737 -0.6404
 1440SOL    HW1 4376   0.296   2.115   1.709  0.1900 -0.3217 -1.1312
 1440SOL    HW2 4377   0.301   2.120   1.861  0.4040  1.2650 -1.1759
 1441SOL     OW 4378   1.643   4.519   4.489 -0.2766  0.2754 -0.3980
 1441SOL    HW1 4379   1.596   4.440   4.465  1.3848 -0.6370 -0.8531
 1441SOL    HW2 4380   1.735   4.492   4.492  0.1094  1.5366  2.1700
 1442SOL     OW 4381   1.240   3.448   0.812  0.0052  0.0895  0.6588
 1442SOL    HW1 4382   1.232   3.468   0.905  1.3692  0.1913  0.7742
 1442SOL    HW2 4383   1.320   3.492   0.785 -0.8870  0.8741 -0.8028
 1443SOL     OW 4384   1.003   0.317   4.475 -0.1788 -0.0290  0.5383
 1443SOL    HW1 4385   1.088   0.360   4.483 -0.1877 -0.1694  1.4994
 1443SOL    HW2 4386   0.984   0.284   4.563 -0.5699 -1.2470  0.0131
 1444SOL     OW 4387   0.466   1.596   4.066  0.4743 -0.1038  0.1577
 1444SOL    HW1 4388   0.508   1.523   4.019 -0.4423 -0.2336 -0.4840
 1444SOL    HW2 4389   0.415   1.554   4.134  0.4753 -0.0164  0.2119
 1445SOL     OW 4390   4.479   2.797   3.661 -0.6261  0.0037  0.1719
 1445SOL    HW1 4391   4.510   2.794   3.752 -0.9286 -0.1719  0.2710
 1445SOL    HW2 4392   4.430   2.716   3.650 -2.0785  0.8287  0.4000
 1446SOL     OW 4393   4.825   3.954   1.256  0.2052  0.1626  0.3084
 1446SOL    HW1 4394   4.902   3.923   1.302  0.5981  1.4534  0.5762
 1446SOL    HW2 4395   4.841   3.933   1.164  0.4004 -0.4927  0.4910
 1447SOL     OW 4396   0.755   4.684   4.358 -0.3100 -0.0975 -0.0731
 1447SOL    HW1 4397   0.783   4.727   4.277  1.2682 -1.4075 -0.2833
 1447SOL    HW2 4398   0.744   4.592   4.333 -1.5501 -0.2234  0.8275
 1448SOL     OW 4399   0.111   0.837   4.168 -0.2393 -0.0218  0.4053
 1448SOL    HW1 4400   0.033   0.893   4.171 -0.3961 -0.0647 -1.6153
 1448SOL    HW2 4401   0.141   0.835   4.258 -2.0537  0.7416  1.0951
 1449SOL     OW 4402   1.607   1.252   2.440  0.0135  0.3567  0.0995
 1449SOL    HW1 4403   1.679   1.312   2.460 -0.1530  0.7183 -0.3501
 1449SOL    HW2 4404   1.536   1.310   2.413 -0.2956 -0.0243  0.0985
 1450SOL     OW 4405   3.860   2.480   1.927  0.1672 -0.2749 -0.2174
 1450SOL    HW1 4406   3.793   2.428   1.883 -0.8022  0.1988  0.6404
 1450SOL    HW2 4407   3.941   2.461   1.880 -0.0428 -2.9272  0.3410
 1451SOL     OW 4408   1.614   2.420   0.574 -0.2222  0.0851 -0.0990
 1451SOL    HW1 4409   1.644   2.500   0.619  0.5799 -1.7717  2.9431
 1451SOL    HW2 4410   1.550   2.452   0.510  0.7169  3.2379  0.3287
 1452SOL     OW 4411   1.136   1.050   1.967 -0.6858 -0.1288  0.4763
 1452SOL    HW1 4412   1.184   1.006   2.037 -0.2438 -1.5224 -0.6619
 1452SOL    HW2 4413   1.185   1.029   1.887 -2.3860 -0.4224 -0.5450
 1453SOL     OW 4414   3.443   4.063   0.807  0.2293  0.4979 -0.1981
 1453SOL    HW1 4415   3.504   4.099   0.742 -0.7334  1.9081 -0.3606
 1453SOL    HW2 4416   3.463   3.970   0.809  1.1908  0.6414 -1.5443
 1454SOL     OW 4417   2.703   0.608   1.898 -0.4602  0.4327  0.2625
 1454SOL    HW1 4418   2.662   0.555   1.966 -0.7781  0.9425  0.4711
 1454SOL    HW2 4419   2.791   0.625   1.931  0.1620 -1.1668 -0.4557
 1455SOL     OW 4420   3.162   2.964   0.104 -0.0494 -0.1477  0.1824
 1455SOL    HW1 4421   3.230   3.008   0.156 -0.2219 -1.9629  2.0754
 1455SOL    HW2 4422   3.197   2.963   0.015  2.2765 -0.6909  1.0300
 1456SOL     OW 4423   1.392   0.245   1.334 -0.7082  0.2355  0.1939
 1456SOL    HW1 4424   1.482   0.214   1.321 -0.8524 -0.1300  0.0811
 1456SOL    HW2 4425   1.390   0.329   1.289 -0.1835  0.6437  0.8967
 1457SOL     OW 4426   2.868   3.083   3.817 -0.1096 -0.1361  0.5850
 1457SOL    HW1 4427   2.819   3.033   3.883  0.1341 -1.4969 -0.2347
 1457SOL    HW2 4428   2.959   3.056   3.828 -0.0406 -0.2381 -0.1835
 1458SOL     OW 4429   1.259   0.034   4.300 -0.1994 -0.0964  0.0591
 1458SOL    HW1 4430   1.183   0.083   4.269 -1.1288 -1.8943 -0.6380
 1458SOL    HW2 4431   1.268   0.060   4.392 -0.4375  1.5865 -0.3608
 1459SOL     OW 4432   4.473   3.402   0.312 -0.5832 -0.1234 -0.6838
 1459SOL    HW1 4433   4.474   3.494   0.285  2.1592  0.7695  1.9316
 1459SOL    HW2 4434   4.416   3.401   0.389  0.8605 -0.1764  0.4159
 1460SOL     OW 4435   0.053   4.269   3.987 -0.1840  0.2161  0.7749
 1460SOL    HW1 4436   0.074   4.194   4.042  1.0703 -0.2446 -0.2915
 1460SOL    HW2 4437   0.086   4.345   4.035 -0.2675 -0.0425  1.2444
 1461SOL     OW 4438   4.438   1.350   0.896  0.0090 -0.1218  0.2592
 1461SOL    HW1 4439   4.520   1.371   0.941 -0.4379  3.9668 -0.5163
 1461SOL    HW2 4440   4.446   1.390   0.810 -1.4782 -2.7487 -1.2331
 1462SOL     OW 4441   1.748   4.892   1.134 -0.1311 -0.2058  0.3158
 1462SOL    HW1 4442   1.811   4.948   1.088  0.1268 -0.6549  0.1126
 1462SOL    HW2 4443   1.663   4.915   1.097  0.0069 -0.1411  0.0393
 1463SOL     OW 4444   1.737   0.800   3.894 -0.2719 -0.3550 -0.0112
 1463SOL    HW1 4445   1.818   0.833   3.931 -0.1844 -0.2469 -0.2987
 1463SOL    HW2 4446   1.754   0.792   3.800 -0.5133 -0.5626 -0.0385
 1464SOL     OW 4447   1.405   1.821   2.273 -0.6182  0.0326 -0.2841
 1464SOL    HW1 4448   1.347   1.822   2.349  0.1140 -1.3159  0.3292
 1464SOL    HW2 4449   1.442   1.909   2.270 -2.9231  1.0711 -0.9281
 1465SOL     OW 4450   0.600   1.529   1.504 -0.5097 -0.3394  0.6443
 1465SOL    HW1 4451   0.583   1.474   1.580  0.6229  0.3203  1.4110
 1465SOL    HW2 4452   0.615   1.616   1.541  0.2285 -0.0483 -0.3097
 1466SOL     OW 4453   0.747   4.760   2.923 -0.3837  0.2102 -0.8878
 1466SOL    HW1 4454   0.672   4.789   2.976  0.4182 -0.3888  0.6424
 1466SOL    HW2 4455   0.780   4.840   2.883 -0.1120  0.9761  0.7537
 1467SOL     OW 4456   4.860   0.944   2.492  0.0760 -0.5059 -0.4919
 1467SOL    HW1 4457   4.790   0.957   2.556  1.0862  0.6161  0.4667
 1467SOL    HW2 4458   4.816   0.921   2.411 -1.4245  0.5246 -0.0089
 1468SOL     OW 4459   2.443   0.964   1.980  0.2611 -0.5190  0.6071
 1468SOL    HW1 4460   2.518   0.924   1.937 -0.1120  0.9957 -1.6235
 1468SOL    HW2 4461   2.377   0.894   1.981 -0.0201 -0.4212 -2.2173
 1469SOL     OW 4462   1.040   3.721   3.805 -0.5453 -0.3334  0.1749
 1469SOL    HW1 4463   1.033   3.638   3.853  1.6660 -0.9331 -0.4198
 1469SOL    HW2 4464   1.116   3.764   3.845  0.3765 -0.1349 -1.6878
 1470SOL     OW 4465   4.560   0.112   0.089 -0.2656  0.2799 -0.1645
 1470SOL    HW1 4466   4.590   0.157   0.011  1.8624  0.4672  0.6948
 1470SOL    HW2 4467   4.621   0.039   0.100 -1.4509 -0.6554  0.4824
 1471SOL     OW 4468   1.803   2.293   1.249 -0.1381 -0.1163 -0.8240
 1471SOL    HW1 4469   1.761   2.224   1.299 -0.8257 -0.0046 -1.2240
 1471SOL    HW2 4470   1.735   2.361   1.240  0.6927  0.8611  0.0458
 1472SOL     OW 4471   0.123   0.397   0.789  0.1394 -0.1795 -0.5782
 1472SOL    HW1 4472   0.137   0.458   0.862 -0.1456 -0.2057 -0.4983
 1472SOL    HW2 4473   0.140   0.310   0.827 -0.1456 -0.2054 -0.4998
 1473SOL     OW 4474   1.601   3.812   4.309  0.0762 -0.3933 -0.3306
 1473SOL    HW1 4475   1.561   3.827   4.395 -0.7341 -0.6298 -0.6575
 1473SOL    HW2 4476   1.599   3.898   4.267 -0.9252 -0.5758 -0.6853
 1474SOL     OW 4477   4.177   3.670   4.352  0.0724 -0.1649 -0.5330
 1474SOL    HW1 4478   4.119   3.742   4.325 -1.5404 -1.2488 -0.1096
 1474SOL    HW2 4479   4.153   3.598   4.294  0.0366 -1.0460  0.5642
 1475SOL     OW 4480   0.050   2.295   4.315  0.0881  0.9095 -0.2860
 1475SOL    HW1 4481   0.126   2.240   4.332 -1.5883 -1.0990  1.1602
 1475SOL    HW2 4482   0.029   2.279   4.223  1.2176  1.3039 -0.6361
 1476SOL     OW 4483   0.131   1.250   2.764 -0.2636 -0.3153 -0.1851
 1476SOL    HW1 4484   0.215   1.260   2.809 -1.1635  1.0473  1.3226
 1476SOL    HW2 4485   0.082   1.188   2.818 -0.6303 -0.2364 -0.4209
 1477SOL     OW 4486   1.320   2.268   4.926  0.0243 -0.6845  0.0164
 1477SOL    HW1 4487   1.360   2.355   4.936 -2.0391  0.1809  1.3020
 1477SOL    HW2 4488   1.387   2.207   4.957  0.8971  0.5845  0.7002
 1478SOL     OW 4489   0.380   0.833   0.224 -0.0143  0.5736 -0.3688
 1478SOL    HW1 4490   0.337   0.820   0.140 -0.6494 -1.8874  0.2484
 1478SOL    HW2 4491   0.474   0.835   0.203  0.0614 -2.8121 -1.0109
 1479SOL     OW 4492   4.210   0.845   1.488 -0.1570  0.4137  0.4483
 1479SOL    HW1 4493   4.133   0.814   1.535  1.6371 -2.7283  1.6032
 1479SOL    HW2 4494   4.175   0.883   1.408 -2.9921  1.1983  1.8928
 1480SOL     OW 4495   3.425   2.721   2.770  0.5806 -0.5373 -0.2428
 1480SOL    HW1 4496   3.390   2.672   2.844 -0.0856 -0.4953 -0.5295
 1480SOL    HW2 4497   3.507   2.759   2.803  1.0382 -1.7218  0.0182
 1481SOL     OW 4498   1.207   1.227   2.814  0.4668 -0.1971 -0.2563
 1481SOL    HW1 4499   1.291   1.224   2.769  0.9435 -1.3789  0.6547
 1481SOL    HW2 4500   1.142   1.207   2.746  0.8381  1.2335 -1.0749
 1482SOL     OW 4501   3.219   2.718   3.671  0.2786  0.4649  0.0237
 1482SOL    HW1 4502   3.244   2.769   3.594  0.9934 -0.7397 -0.5751
 1482SOL    HW2 4503   3.125   2.735   3.681 -0.1455 -0.4356 -1.9737
 1483SOL     OW 4504   1.957   2.835   4.249 -0.7956 -0.4171  0.1884
 1483SOL    HW1 4505   2.030   2.875   4.201 -1.8988 -0.7341 -1.8586
 1483SOL    HW2 4506   1.918   2.773   4.187 -0.9412 -2.5790  2.2608
 1484SOL     OW 4507   1.476   3.857   4.007  0.3146  0.3911 -0.5671
 1484SOL    HW1 4508   1.406   3.839   3.944 -0.9784  0.7126  0.7048
 1484SOL    HW2 4509   1.441   3.928   4.062  1.4529  0.2441  0.3909
 1485SOL     OW 4510   4.416   1.571   2.192  0.1593  0.3601 -0.1723
 1485SOL    HW1 4511   4.397   1.640   2.256  0.3312 -0.7366  1.1141
 1485SOL    HW2 4512   4.507   1.549   2.207 -0.0971 -0.6630 -0.0366
 1486SOL     OW 4513   2.557   4.276   1.329 -0.2567  0.1962  0.0771
 1486SOL    HW1 4514   2.493   4.227   1.277 -0.0313 -2.1502  1.8676
 1486SOL    HW2 4515   2.525   4.272   1.419  1.9805 -0.4331  0.9295
 1487SOL     OW 4516   4.098   2.126   1.856 -0.4327 -0.1433  0.6366
 1487SOL    HW1 4517   4.182   2.080   1.867  0.4549  0.7035 -1.8294
 1487SOL    HW2 4518   4.071   2.103   1.767 -1.5245  1.6089  0.4799
 1488SOL     OW 4519   1.015   1.880   0.602  0.5040 -0.7117  0.2934
 1488SOL    HW1 4520   1.078   1.929   0.655 -0.0704 -2.4451  2.7570
 1488SOL    HW2 4521   1.069   1.818   0.552  0.9986  0.4223 -0.6195
 1489SOL     OW 4522   2.914   0.460   3.091  0.3079 -0.3161  0.1951
 1489SOL    HW1 4523   2.834   0.466   3.144  0.5347 -0.1371  0.5280
 1489SOL    HW2 4524   2.960   0.542   3.109 -0.0681  0.1872 -1.0437
 1490SOL     OW 4525   0.957   0.360   1.019  0.3140 -0.1536  0.0912
 1490SOL    HW1 4526   0.943   0.267   0.999 -0.7359 -0.9911  3.9530
 1490SOL    HW2 4527   1.022   0.359   1.089  1.8179  2.2576 -1.1512
 1491SOL     OW 4528   3.086   1.402   2.025 -0.5483  0.2001  0.2395
 1491SOL    HW1 4529   3.090   1.313   2.060  0.3999 -0.4768 -1.4774
 1491SOL    HW2 4530   3.177   1.424   2.005 -0.9659  0.8212 -1.0733
 1492SOL     OW 4531   0.093   3.919   2.083 -0.3987  0.2701 -0.4265
 1492SOL    HW1 4532   0.115   4.012   2.076 -1.3804  0.5565  0.1649
 1492SOL    HW2 4533   0.150   3.886   2.152  0.6060  0.2071 -1.2563
 1493SOL     OW 4534   2.460   2.529   0.349 -0.3660 -0.0284  0.1270
 1493SOL    HW1 4535   2.550   2.522   0.380 -0.7001 -2.5054  0.7369
 1493SOL    HW2 4536   2.410   2.553   0.427 -0.4227 -0.2251  0.1525
 1494SOL     OW 4537   2.541   3.868   0.621 -0.1470 -0.1775  0.5478
 1494SOL    HW1 4538   2.527   3.925   0.545 -0.5230  0.5530  1.1501
 1494SOL    HW2 4539   2.515   3.921   0.696  2.2908 -0.0985  1.4079
 1495SOL     OW 4540   3.189   4.338   1.535  0.4037  0.2744 -0.2578
 1495SOL    HW1 4541   3.174   4.422   1.579  2.1443  1.4865 -1.8344
 1495SOL    HW2 4542   3.164   4.353   1.444  0.2915 -1.0740 -0.4721
 1496SOL     OW 4543   4.033   4.954   4.822 -0.3086 -0.1075  0.4886
 1496SOL    HW1 4544   4.102   5.021   4.816  0.2328 -0.7446 -0.5903
 1496SOL    HW2 4545   4.064   4.882   4.767 -1.6511 -0.5819  0.3116
 1497SOL     OW 4546   2.769   0.940   4.731  0.0058 -0.4761  0.1473
 1497SOL    HW1 4547   2.752   0.921   4.823 -0.8881 -0.0097  0.0907
 1497SOL    HW2 4548   2.687   0.918   4.686  0.6140 -1.2584 -0.6338
 1498SOL     OW 4549   1.746   3.810   0.678 -0.1474 -0.5358 -0.0112
 1498SOL    HW1 4550   1.815   3.759   0.634 -0.4281 -0.8278 -0.1150
 1498SOL    HW2 4551   1.717   3.754   0.749 -1.2200 -0.9941 -0.7855
 1499SOL     OW 4552   4.947   1.598   0.100  0.7017 -0.4937 -0.2184
 1499SOL    HW1 4553   4.930   1.614   0.007  0.0545  0.0665 -0.0178
 1499SOL    HW2 4554   4.859   1.595   0.140  0.8632 -2.6109  0.0933
 1500SOL     OW 4555   0.916   2.482   3.704 -0.2966 -0.0263 -0.5418
 1500SOL    HW1 4556   0.852   2.532   3.654 -1.5053 -0.1442  0.8281
 1500SOL    HW2 4557   0.923   2.528   3.787  0.5763 -0.6548 -0.2546
 1501SOL     OW 4558   0.848   4.692   0.425 -0.1938 -0.1468 -0.8127
 1501SOL    HW1 4559   0.879   4.695   0.516 -0.2190 -3.1312 -0.6126
 1501SOL    HW2 4560   0.913   4.742   0.376 -0.0416  1.2944  0.7866
 1502SOL     OW 4561   1.614   3.951   1.051  0.0393  0.0821 -0.2566
 1502SOL    HW1 4562   1.595   3.990   1.136 -0.3734  1.3189 -0.8900
 1502SOL    HW2 4563   1.579   4.013   0.987  2.8464  0.6670 -1.4247
 1503SOL     OW 4564   1.047   4.711   0.657  0.5409  0.1466  0.4065
 1503SOL    HW1 4565   1.007   4.796   0.673  1.5889  1.2797 -2.3137
 1503SOL    HW2 4566   1.138   4.722   0.686  1.7283  1.3580 -3.2453
 1504SOL     OW 4567   1.394   3.333   2.225 -0.1377  0.1888  0.2872
 1504SOL    HW1 4568   1.478   3.376   2.207  0.4719 -0.8592  0.5682
 1504SOL    HW2 4569   1.413   3.272   2.297 -0.5098 -1.9607 -1.3464
 1505SOL     OW 4570   1.513   1.005   3.174  0.0776  0.5228 -0.2456
 1505SOL    HW1 4571   1.481   0.945   3.242 -1.3166 -2.0759 -2.9022
 1505SOL    HW2 4572   1.602   1.027   3.200  0.7129 -2.8584  0.9477
 1506SOL     OW 4573   2.274   4.955   0.368  0.1658 -0.3521 -0.4801
 1506SOL    HW1 4574   2.322   5.019   0.315 -1.0738  1.9681  1.0571
 1506SOL    HW2 4575   2.343   4.906   0.413  1.1614  1.0059 -0.4435
 1507SOL     OW 4576   4.690   4.680   3.563 -0.3873  0.7481 -0.1581
 1507SOL    HW1 4577   4.769   4.730   3.584  0.1662 -0.2414  0.1803
 1507SOL    HW2 4578   4.709   4.592   3.595 -1.8160  0.6086  0.3481
 1508SOL     OW 4579   0.487   4.736   4.752  0.4638  0.3655  0.0884
 1508SOL    HW1 4580   0.535   4.689   4.820 -0.4472  0.2980  0.6982
 1508SOL    HW2 4581   0.427   4.793   4.799  0.4819  1.0259 -0.6606
 1509SOL     OW 4582   1.163   4.762   3.319 -0.1173 -0.2264 -0.0623
 1509SOL    HW1 4583   1.228   4.802   3.261  1.5043 -2.2087  0.2359
 1509SOL    HW2 4584   1.126   4.690   3.267  1.8259 -2.4469  1.4131
 1510SOL     OW 4585   2.613   3.128   0.697 -0.6022  0.3384 -0.6171
 1510SOL    HW1 4586   2.673   3.149   0.769 -0.4697  2.1037 -1.1979
 1510SOL    HW2 4587   2.660   3.061   0.646 -0.8873 -1.2658  1.1250
 1511SOL     OW 4588   3.896   4.673   4.441 -0.1090  0.2100 -0.0062
 1511SOL    HW1 4589   3.838   4.677   4.365 -0.1397 -1.3524 -0.1048
 1511SOL    HW2 4590   3.970   4.619   4.412  0.9286  1.3559  0.4261
 1512SOL     OW 4591   1.924   1.218   3.769 -0.3671 -0.2112 -0.0020
 1512SOL    HW1 4592   1.961   1.213   3.857 -0.6750  3.3142  0.4831
 1512SOL    HW2 4593   1.843   1.166   3.774 -1.0738  0.9662  2.2432
 1513SOL     OW 4594   4.426   0.152   0.310  0.1528  0.1417 -0.0826
 1513SOL    HW1 4595   4.332   0.148   0.294 -0.1567  2.4811  0.8001
 1513SOL    HW2 4596   4.466   0.137   0.224 -0.9724 -0.9968 -0.4461
 1514SOL     OW 4597   3.842   1.382   3.114  0.4076  0.4823 -0.1970
 1514SOL    HW1 4598   3.924   1.348   3.152  1.0015  1.2459 -0.7563
 1514SOL    HW2 4599   3.816   1.315   3.050  0.8070  0.4194 -0.2979
 1515SOL     OW 4600   0.345   3.577   4.423 -0.3150  0.9525 -0.0545
 1515SOL    HW1 4601   0.283   3.517   4.464  2.0094 -1.5767  0.0322
 1515SOL    HW2 4602   0.292   3.652   4.396 -3.6830 -1.6168 -1.2776
 1516SOL     OW 4603   0.926   0.450   0.198  0.2743 -0.1416 -0.2378
 1516SOL    HW1 4604   0.901   0.421   0.110  0.1325  1.0194 -0.6031
 1516SOL    HW2 4605   0.926   0.371   0.251  0.5101 -0.8825 -1.3203
 1517SOL     OW 4606   4.750   1.633   2.674  0.7861  0.3723 -0.6163
 1517SOL    HW1 4607   4.673   1.631   2.730  0.6858 -1.4012 -0.7620
 1517SOL    HW2 4608   4.813   1.689   2.721 -0.8875  2.7153 -0.9848
 1518SOL     OW 4609   0.186   3.460   0.799 -0.0475  0.7473  0.3728
 1518SOL    HW1 4610   0.127   3.527   0.833 -1.3869 -1.0535  1.7991
 1518SOL    HW2 4611   0.229   3.424   0.877  0.8099  0.1245 -0.3693
 1519SOL     OW 4612   4.499   1.865   1.432  0.2775  0.0637 -0.0877
 1519SOL    HW1 4613   4.426   1.864   1.370 -0.0865 -0.8984  0.3377
 1519SOL    HW2 4614   4.457   1.865   1.518  0.7805  0.5661  0.1608
 1520SOL     OW 4615   1.256   4.357   2.388 -0.5777 -0.0348  0.3733
 1520SOL    HW1 4616   1.191   4.312   2.441 -1.8836  0.3463 -0.8505
 1520SOL    HW2 4617   1.234   4.450   2.396  0.1604  0.1517  0.3603
 1521SOL     OW 4618   4.346   0.255   2.164 -0.1272 -0.2442  0.0401
 1521SOL    HW1 4619   4.352   0.240   2.258 -0.6403 -2.6899 -0.2455
 1521SOL    HW2 4620   4.430   0.223   2.130  0.1228  0.7805 -0.3257
 1522SOL     OW 4621   4.461   2.649   1.894 -0.3423 -0.1397  0.9475
 1522SOL    HW1 4622   4.368   2.632   1.880  0.2312 -1.4954 -2.1463
 1522SOL    HW2 4623   4.474   2.739   1.862 -0.0681 -1.2822 -2.6949
 1523SOL     OW 4624   2.628   4.480   2.167 -0.2992 -0.2668  0.0844
 1523SOL    HW1 4625   2.596   4.397   2.132 -0.8305 -1.0506  2.2293
 1523SOL    HW2 4626   2.722   4.476   2.155 -0.4859 -0.3625 -1.4575
 1524SOL     OW 4627   3.773   2.464   4.905  0.8240 -0.2758  0.2013
 1524SOL    HW1 4628   3.687   2.506   4.913  1.5800  1.3836  0.0224
 1524SOL    HW2 4629   3.770   2.391   4.966 -0.0502  0.9025  1.6258
 1525SOL     OW 4630   2.416   1.594   3.874 -0.2549  0.1258 -0.4276
 1525SOL    HW1 4631   2.349   1.571   3.810  0.0034  1.1365 -1.0810
 1525SOL    HW2 4632   2.379   1.667   3.923 -1.7069 -2.4203  2.6538
 1526SOL     OW 4633   3.878   1.476   2.248 -0.5437  0.1995  0.0237
 1526SOL    HW1 4634   3.968   1.505   2.262 -1.3096  1.6335  2.5963
 1526SOL    HW2 4635   3.881   1.381   2.259  0.4710  0.3641  1.4674
 1527SOL     OW 4636   2.249   4.148   2.405  0.0270 -0.6099 -0.2542
 1527SOL    HW1 4637   2.181   4.132   2.470  1.1961 -0.5189  1.0541
 1527SOL    HW2 4638   2.316   4.083   2.424  0.3716 -0.6079 -1.4149
 1528SOL     OW 4639   4.574   4.800   0.777 -0.1119 -0.2801  0.5449
 1528SOL    HW1 4640   4.657   4.807   0.731  0.2490 -0.7160  1.1149
 1528SOL    HW2 4641   4.598   4.785   0.869 -0.8092  1.4276  1.0445
 1529SOL     OW 4642   1.218   4.837   3.838 -0.1596 -0.1618 -0.7263
 1529SOL    HW1 4643   1.290   4.823   3.777 -0.0486 -0.0388 -0.6260
 1529SOL    HW2 4644   1.152   4.884   3.787 -0.9300 -1.8421 -1.3333
 1530SOL     OW 4645   3.593   0.233   3.929 -0.3585  0.4854 -0.4023
 1530SOL    HW1 4646   3.627   0.299   3.989  0.1552  0.2746 -0.4540
 1530SOL    HW2 4647   3.612   0.149   3.972  1.3531  0.2617 -1.5108
 1531SOL     OW 4648   0.380   0.981   2.699 -0.3128 -0.3969  0.3337
 1531SOL    HW1 4649   0.376   0.986   2.604 -4.2271  0.5480  0.3777
 1531SOL    HW2 4650   0.316   0.913   2.722 -1.0403  0.8428  2.2693
 1532SOL     OW 4651   0.837   4.839   3.239 -0.0315 -0.5381  0.0317
 1532SOL    HW1 4652   0.923   4.840   3.281 -0.7528  1.0851  1.5932
 1532SOL    HW2 4653   0.800   4.753   3.261  1.5978 -1.7768 -1.7020
 1533SOL     OW 4654   1.971   4.865   4.422  0.0803 -0.1164 -0.5069
 1533SOL    HW1 4655   2.027   4.824   4.356 -0.1838 -0.4097 -0.5481
 1533SOL    HW2 4656   1.931   4.792   4.468 -0.4677  0.0955 -0.6435
 1534SOL     OW 4657   2.891   4.427   4.852  0.2757 -0.1627  0.3742
 1534SOL    HW1 4658   2.870   4.516   4.879 -1.1886 -0.2191 -0.4672
 1534SOL    HW2 4659   2.978   4.432   4.813  0.0831  0.9462  0.0743
 1535SOL     OW 4660   3.567   3.898   2.356 -0.4882 -0.0798  0.1049
 1535SOL    HW1 4661   3.555   3.993   2.365  0.0066 -0.1268  1.6594
 1535SOL    HW2 4662   3.485   3.861   2.388 -1.4007 -0.1812 -2.2067
 1536SOL     OW 4663   4.413   4.939   3.730 -0.1065  0.2737  0.2069
 1536SOL    HW1 4664   4.338   4.896   3.690  0.5010 -0.4681 -0.1683
 1536SOL    HW2 4665   4.384   4.962   3.818 -1.0562  0.8059 -0.2299
 1537SOL     OW 4666   2.236   2.421   0.604 -0.5209 -0.3720  0.2966
 1537SOL    HW1 4667   2.169   2.354   0.589 -1.3890  0.9648 -2.6389
 1537SOL    HW2 4668   2.188   2.503   0.605  0.9045  0.5128 -0.3417
 1538SOL     OW 4669   4.746   4.160   1.422 -0.3033 -0.3699  0.7985
 1538SOL    HW1 4670   4.768   4.080   1.376 -1.1736 -0.1446 -0.0346
 1538SOL    HW2 4671   4.741   4.227   1.354  1.2618  0.6022  1.5701
 1539SOL     OW 4672   0.799   4.372   0.043  0.0834 -0.0437  0.0160
 1539SOL    HW1 4673   0.860   4.379   0.116  0.1544  0.6724 -0.1040
 1539SOL    HW2 4674   0.848   4.406  -0.032  0.0587 -0.8977 -0.3990
 1540SOL     OW 4675   3.586   3.743   1.148 -0.3045 -0.2843  0.1491
 1540SOL    HW1 4676   3.563   3.770   1.237  0.4033 -1.9503  0.8673
 1540SOL    HW2 4677   3.679   3.721   1.153 -0.0401  0.3796 -1.2205
 1541SOL     OW 4678   4.247   1.445   2.000  0.2918  0.1107  0.0144
 1541SOL    HW1 4679   4.279   1.483   2.082  1.5909 -3.3650  1.3226
 1541SOL    HW2 4680   4.327   1.421   1.952 -0.4594 -0.0310 -1.2129
 1542SOL     OW 4681   1.536   1.400   3.262 -0.1537  0.4620  0.6529
 1542SOL    HW1 4682   1.481   1.434   3.191 -0.5812 -1.1569  0.1718
 1542SOL    HW2 4683   1.477   1.345   3.314  0.4674  0.5794  1.5064
 1543SOL     OW 4684   0.576   2.703   1.663  0.7130 -0.4466 -0.4582
 1543SOL    HW1 4685   0.549   2.651   1.738 -1.8486 -0.9585 -1.6202
 1543SOL    HW2 4686   0.547   2.793   1.683 -0.0377 -0.5965 -0.7990
 1544SOL     OW 4687   2.274   1.659   2.909  0.2233 -0.0179 -0.4397
 1544SOL    HW1 4688   2.302   1.675   2.819  0.3480 -0.5678 -0.5000
 1544SOL    HW2 4689   2.318   1.728   2.960  1.4228 -0.6506 -0.5812
 1545SOL     OW 4690   0.488   3.606   1.887  0.3676  0.1507 -0.3704
 1545SOL    HW1 4691   0.418   3.571   1.832 -1.0648  2.2419 -0.0200
 1545SOL    HW2 4692   0.548   3.649   1.825  0.5738 -0.3898 -0.5516
 1546SOL     OW 4693   1.630   2.015   0.908  0.1715  0.3481  0.4345
 1546SOL    HW1 4694   1.569   1.972   0.848 -1.8447  0.2134  2.4541
 1546SOL    HW2 4695   1.642   2.102   0.872 -1.0528  0.2979 -0.1436
 1547SOL     OW 4696   4.731   3.401   0.575  0.4879  0.1338 -0.0336
 1547SOL    HW1 4697   4.824   3.423   0.578  0.3843  0.7077 -0.8263
 1547SOL    HW2 4698   4.724   3.320   0.627  1.1694  0.9459  1.3956
 1548SOL     OW 4699   0.336   4.718   1.217 -0.3327  0.1309  0.4041
 1548SOL    HW1 4700   0.354   4.625   1.231  0.6373  0.5520  2.3490
 1548SOL    HW2 4701   0.241   4.723   1.208 -0.5403 -0.9073  1.7360
 1549SOL     OW 4702   3.667   4.610   3.534 -0.4022 -0.1175  0.0494
 1549SOL    HW1 4703   3.670   4.689   3.481  0.2926 -1.1570 -1.5358
 1549SOL    HW2 4704   3.758   4.594   3.559 -0.1240 -1.6985 -1.7128
 1550SOL     OW 4705   3.822   3.344   4.001  0.1320  0.2667 -0.0278
 1550SOL    HW1 4706   3.775   3.384   4.075 -0.4036  0.0973 -0.2773
 1550SOL    HW2 4707   3.800   3.251   4.006 -2.0543  0.6022 -1.9458
 1551SOL     OW 4708   3.820   0.094   1.995 -0.4130  0.4311  0.0772
 1551SOL    HW1 4709   3.800   0.164   2.057 -0.7957 -0.5385  1.0745
 1551SOL    HW2 4710   3.820   0.138   1.909 -0.4760  1.6739  0.6889
 1552SOL     OW 4711   3.595   2.419   0.456  0.4093 -0.0717 -0.0796
 1552SOL    HW1 4712   3.500   2.412   0.462  0.4010  0.5478  0.7405
 1552SOL    HW2 4713   3.627   2.330   0.470  0.0015 -0.0160  1.4633
 1553SOL     OW 4714   4.064   0.024   0.688 -0.4099  0.1321  0.1968
 1553SOL    HW1 4715   4.152  -0.013   0.677 -0.3511  0.0663  0.8406
 1553SOL    HW2 4716   4.034  -0.011   0.772 -0.8330  0.5955  0.2434
 1554SOL     OW 4717   1.878   0.877   0.214 -0.0096 -0.3181  0.0951
 1554SOL    HW1 4718   1.911   0.818   0.281 -1.7445 -1.6736 -0.1899
 1554SOL    HW2 4719   1.947   0.943   0.204  1.1632 -1.2420  1.7294
 1555SOL     OW 4720   4.279   2.602   2.624  0.4432  1.0373  0.9769
 1555SOL    HW1 4721   4.268   2.696   2.641  0.4268  0.9385  1.5321
 1555SOL    HW2 4722   4.190   2.569   2.616  0.4527  1.3423 -0.8487
 1556SOL     OW 4723   0.284   2.750   1.934  0.1792 -0.5799  0.1774
 1556SOL    HW1 4724   0.285   2.716   2.023  0.2057 -1.1757 -0.0471
 1556SOL    HW2 4725   0.330   2.684   1.882 -0.4965 -0.6021 -0.4071
 1557SOL     OW 4726   0.098   0.137   2.160  0.0700  0.1354 -0.3901
 1557SOL    HW1 4727   0.129   0.158   2.072 -0.6486 -1.0021 -0.9289
 1557SOL    HW2 4728   0.109   0.219   2.209  2.4766  0.2157 -0.9385
 1558SOL     OW 4729   3.061   0.786   2.339  0.0043  0.1613 -0.4392
 1558SOL    HW1 4730   3.085   0.702   2.299  1.1787  0.5271 -0.5531
 1558SOL    HW2 4731   3.088   0.778   2.430  1.1692  0.7946 -0.7062
 1559SOL     OW 4732   4.014   4.550   3.934  0.2525  0.5768  0.8606
 1559SOL    HW1 4733   3.973   4.485   3.991  0.9600 -0.3192  0.3732
 1559SOL    HW2 4734   4.093   4.577   3.981  0.5242  0.2791  0.5786
 1560SOL     OW 4735   0.526   1.065   2.924  0.6495  0.3099  0.2333
 1560SOL    HW1 4736   0.471   1.038   2.850  1.3941  0.2074 -0.2964
 1560SOL    HW2 4737   0.536   0.985   2.976 -0.3957  0.5321  0.7951
 1561SOL     OW 4738   4.214   3.043   0.595 -0.7128  0.2904  0.2054
 1561SOL    HW1 4739   4.198   2.999   0.512  3.6332  0.9894 -1.2818
 1561SOL    HW2 4740   4.246   2.974   0.653  1.6111  0.5621 -0.6353
 1562SOL     OW 4741   2.856   2.322   4.166 -0.0284  0.2075 -0.3664
 1562SOL    HW1 4742   2.834   2.229   4.171 -2.3799  0.7128 -0.0666
 1562SOL    HW2 4743   2.889   2.335   4.078  0.0434 -0.8664 -0.5023
 1563SOL     OW 4744   0.120   0.075   1.404  0.2330 -0.3889 -0.1373
 1563SOL    HW1 4745   0.044   0.125   1.432 -2.3567 -2.3970 -2.8840
 1563SOL    HW2 4746   0.101  -0.015   1.432  2.2955 -0.7371  0.3027
 1564SOL     OW 4747   4.258   4.719   3.623 -0.1231  0.5970 -0.3987
 1564SOL    HW1 4748   4.282   4.627   3.611  1.9515  1.0381  0.0525
 1564SOL    HW2 4749   4.214   4.743   3.541  0.4146 -0.4588 -1.0259
 1565SOL     OW 4750   0.768   0.088   4.444  0.4340  0.3652  0.8463
 1565SOL    HW1 4751   0.855   0.047   4.445  0.1590 -0.3806  4.0972
 1565SOL    HW2 4752   0.725   0.050   4.367  3.5497  2.3255 -2.1163
 1566SOL     OW 4753   3.767   0.191   3.660  0.1703  0.0056 -0.5186
 1566SOL    HW1 4754   3.805   0.123   3.605  2.6554  0.0651  1.0138
 1566SOL    HW2 4755   3.698   0.146   3.709  0.7539 -1.0447 -0.6287
 1567SOL     OW 4756   2.840   0.874   2.905 -0.1459 -0.3531  0.3055
 1567SOL    HW1 4757   2.749   0.851   2.889 -0.2507 -0.4054  0.9599
 1567SOL    HW2 4758   2.881   0.873   2.818 -1.3599  2.3331 -0.4011
 1568SOL     OW 4759   2.583   4.366   2.713 -0.0709  0.4387 -0.4630
 1568SOL    HW1 4760   2.562   4.372   2.619  1.0604  0.9152 -0.6959
 1568SOL    HW2 4761   2.673   4.398   2.720 -0.3812  1.0793  0.8863
 1569SOL     OW 4762   4.565   3.306   2.555  0.2394 -0.0474 -0.1550
 1569SOL    HW1 4763   4.651   3.344   2.540  0.5577 -0.9758 -0.8086
 1569SOL    HW2 4764   4.517   3.372   2.605  0.4777  1.5640 -1.9421
 1570SOL     OW 4765   1.762   2.633   0.695 -0.2389  0.1311 -0.3780
 1570SOL    HW1 4766   1.804   2.713   0.663  1.5393 -0.5432  0.1320
 1570SOL    HW2 4767   1.832   2.586   0.740 -0.8104 -2.4469 -1.9527
 1571SOL     OW 4768   1.296   3.588   4.908 -0.1575 -0.5764 -0.0108
 1571SOL    HW1 4769   1.208   3.622   4.893 -0.2021 -0.3388  0.7714
 1571SOL    HW2 4770   1.283   3.508   4.959  0.0718 -0.6086 -0.0009
 1572SOL     OW 4771   0.154   3.249   3.796  0.5376  0.4876  0.0192
 1572SOL    HW1 4772   0.126   3.220   3.883 -1.7514  0.1617 -0.7699
 1572SOL    HW2 4773   0.215   3.321   3.813 -0.2257  0.7403  1.8883
 1573SOL     OW 4774   4.218   3.181   1.074 -0.9784  0.0019 -0.2843
 1573SOL    HW1 4775   4.134   3.217   1.101 -0.5829  1.1218 -0.5031
 1573SOL    HW2 4776   4.259   3.250   1.022  0.7406  0.1285  1.1190
 1574SOL     OW 4777   4.138   3.229   3.583  0.2323 -0.3497  0.0179
 1574SOL    HW1 4778   4.081   3.262   3.653  1.0787  1.6455 -0.1647
 1574SOL    HW2 4779   4.193   3.303   3.560  0.3910 -1.1305 -2.3926
 1575SOL     OW 4780   1.448   1.013   0.253 -0.2830  0.1489  0.5689
 1575SOL    HW1 4781   1.484   0.959   0.324  0.5494  0.6886  0.5709
 1575SOL    HW2 4782   1.492   1.097   0.263  1.4191 -0.3788 -1.8419
 1576SOL     OW 4783   2.565   2.779   3.183 -0.1363  0.2998 -0.0153
 1576SOL    HW1 4784   2.493   2.721   3.158 -0.0322 -0.0592  0.5026
 1576SOL    HW2 4785   2.575   2.838   3.108 -1.6893  1.0757  0.3283
 1577SOL     OW 4786   2.516   3.803   4.184  0.9316 -0.6929  0.2070
 1577SOL    HW1 4787   2.595   3.857   4.183 -1.1615  2.6495  0.0498
 1577SOL    HW2 4788   2.501   3.782   4.092  2.6390 -3.2170  0.3857
 1578SOL     OW 4789   0.805   1.525   0.792  0.1443 -0.3313 -0.6572
 1578SOL    HW1 4790   0.829   1.509   0.701  2.7113  2.4213 -0.6082
 1578SOL    HW2 4791   0.876   1.486   0.843 -0.0477  0.2140  0.0453
 1579SOL     OW 4792   4.909   0.118   3.546 -0.1311  0.0287 -0.3719
 1579SOL    HW1 4793   4.933   0.165   3.626 -0.4139 -0.1059 -0.2081
 1579SOL    HW2 4794   4.816   0.099   3.556  0.2537 -1.7768  0.1895
 1580SOL     OW 4795   2.755   1.152   2.740 -0.0657 -0.0796  0.0351
 1580SOL    HW1 4796   2.796   1.089   2.680  0.6133  0.4130 -0.0312
 1580SOL    HW2 4797   2.825   1.179   2.799  0.1313  1.8689 -0.9791
 1581SOL     OW 4798   1.966   4.171   4.194  0.3161  0.4531 -0.0745
 1581SOL    HW1 4799   2.039   4.198   4.138  0.9798  0.0291  0.5767
 1581SOL    HW2 4800   1.999   4.095   4.242 -0.3444  0.6353  0.6827
 1582SOL     OW 4801   2.656   0.238   2.614  0.1256  0.3071 -0.2816
 1582SOL    HW1 4802   2.691   0.227   2.702 -2.4754  2.6952  1.2242
 1582SOL    HW2 4803   2.728   0.276   2.564  1.4960 -0.5820  0.9468
 1583SOL     OW 4804   1.047   1.302   0.555 -0.0290  0.7271  0.0977
 1583SOL    HW1 4805   1.034   1.346   0.471  1.3308 -0.4258 -0.7664
 1583SOL    HW2 4806   1.057   1.209   0.532  1.7128  0.5517  1.3571
 1584SOL     OW 4807   0.142   3.842   2.750 -0.2459  0.0591  0.0152
 1584SOL    HW1 4808   0.072   3.777   2.747  0.6383 -0.9713  0.9056
 1584SOL    HW2 4809   0.222   3.791   2.764  0.5922  1.2760 -0.1346
 1585SOL     OW 4810   1.469   4.131   2.856  0.3328 -0.2403 -0.1228
 1585SOL    HW1 4811   1.530   4.060   2.878  0.5695  0.6099  2.2529
 1585SOL    HW2 4812   1.391   4.112   2.907  0.8557  1.7878  1.6011
 1586SOL     OW 4813   0.047   1.152   3.241  0.0564  0.1166  0.2971
 1586SOL    HW1 4814   0.006   1.080   3.289  0.6731  0.7561  1.8565
 1586SOL    HW2 4815   0.135   1.119   3.219 -0.4100 -0.3712 -0.9083
 1587SOL     OW 4816   4.520   0.509   4.192  0.5723  0.6935  0.6860
 1587SOL    HW1 4817   4.483   0.460   4.118  1.0010 -1.6755  1.9155
 1587SOL    HW2 4818   4.614   0.492   4.188  0.3356 -2.4459  3.5637
 1588SOL     OW 4819   0.826   0.802   1.121 -0.1992  0.0272  0.2832
 1588SOL    HW1 4820   0.919   0.781   1.137 -0.5797 -0.9202  1.4843
 1588SOL    HW2 4821   0.803   0.751   1.044  0.5680  1.2181 -0.7714
 1589SOL     OW 4822   2.934   0.325   2.031  0.0998  0.2124  0.3448
 1589SOL    HW1 4823   2.988   0.395   1.996 -1.1903  0.8249 -0.4955
 1589SOL    HW2 4824   2.900   0.360   2.113 -1.8657  1.2980 -0.8536
 1590SOL     OW 4825   4.364   4.751   2.968 -0.2183  0.2220  0.2745
 1590SOL    HW1 4826   4.379   4.845   2.956  0.4299 -0.1356 -2.4332
 1590SOL    HW2 4827   4.448   4.711   2.944 -1.2978 -1.1446 -1.4217
 1591SOL     OW 4828   4.739   1.592   3.038  0.5237  0.1336  0.4284
 1591SOL    HW1 4829   4.730   1.508   3.083 -0.8318  0.8693  1.5961
 1591SOL    HW2 4830   4.783   1.649   3.101 -0.3984  0.8629  0.4414
 1592SOL     OW 4831   3.559   1.993   2.093  0.2526 -0.6348  0.0268
 1592SOL    HW1 4832   3.492   1.927   2.114 -2.3179  1.7087 -0.2287
 1592SOL    HW2 4833   3.627   1.981   2.159 -1.3330 -1.9243  1.5093
 1593SOL     OW 4834   0.084   4.799   4.077 -0.1497 -0.7593  0.3447
 1593SOL    HW1 4835   0.112   4.712   4.106 -1.9609 -1.3262  0.5080
 1593SOL    HW2 4836   0.016   4.824   4.138 -0.7991  0.0569 -0.6787
 1594SOL     OW 4837   0.370   0.176   0.275  0.3523 -0.0521 -1.2214
 1594SOL    HW1 4838   0.443   0.230   0.246  1.4142 -0.6021  0.3230
 1594SOL    HW2 4839   0.313   0.236   0.323  1.0485 -0.0807 -0.3292
 1595SOL     OW 4840   2.886   2.691   3.755 -0.6599 -0.9189  0.6753
 1595SOL    HW1 4841   2.927   2.691   3.668  0.3700 -1.6658  1.1466
 1595SOL    HW2 4842   2.792   2.692   3.736 -0.5021  1.5092 -0.4182
 1596SOL     OW 4843   3.451   0.730   0.011 -0.1144  0.2214  0.2174
 1596SOL    HW1 4844   3.491   0.670   0.074  0.7129 -0.0387 -0.5258
 1596SOL    HW2 4845   3.522   0.749  -0.051  0.4317  3.7717  1.6516
 1597SOL     OW 4846   3.410   0.038   0.390  0.0012  0.3955 -0.0735
 1597SOL    HW1 4847   3.430  -0.044   0.435 -0.7621  0.7110  0.8605
 1597SOL    HW2 4848   3.478   0.099   0.420 -2.4675  1.6328  3.5554
 1598SOL     OW 4849   0.415   4.301   3.770  0.4276 -0.0659  0.3108
 1598SOL    HW1 4850   0.478   4.333   3.705 -0.0646  2.6748  1.0608
 1598SOL    HW2 4851   0.409   4.207   3.753  2.2887  0.1192 -1.8610
 1599SOL     OW 4852   0.141   3.529   2.866  0.0875 -0.0914  0.8464
 1599SOL    HW1 4853   0.180   3.451   2.905  0.2632  0.5530  1.9984
 1599SOL    HW2 4854   0.215   3.586   2.845 -0.0188 -0.3245 -0.2465
 1600SOL     OW 4855   4.476   2.915   2.666  0.3152  0.5609  0.3922
 1600SOL    HW1 4856   4.566   2.940   2.685  0.6645 -0.9713  0.8792
 1600SOL    HW2 4857   4.453   2.853   2.736 -0.2642 -0.9797 -1.1011
 1601SOL     OW 4858   4.699   4.792   3.065 -0.4929 -0.0215  0.6237
 1601SOL    HW1 4859   4.787   4.816   3.096 -0.8834 -0.0198  1.7927
 1601SOL    HW2 4860   4.655   4.876   3.052  0.5176  0.1114 -2.7070
 1602SOL     OW 4861   0.778   4.003   2.144  0.0253 -0.1976 -0.4663
 1602SOL    HW1 4862   0.753   3.973   2.232 -1.4936  2.8162  0.2551
 1602SOL    HW2 4863   0.699   4.045   2.110  1.7379  2.3530 -1.5411
 1603SOL     OW 4864   2.588   1.324   3.735 -0.7385  0.1305  0.2650
 1603SOL    HW1 4865   2.601   1.237   3.696  2.2345 -0.7751  2.8118
 1603SOL    HW2 4866   2.497   1.324   3.765 -1.0536 -1.7663 -0.5367
 1604SOL     OW 4867   3.627   4.090   1.278  0.0627  0.3350  0.2482
 1604SOL    HW1 4868   3.638   4.150   1.204  0.6969 -0.6123 -0.4574
 1604SOL    HW2 4869   3.596   4.145   1.349 -0.4153  1.3079 -0.6777
 1605SOL     OW 4870   4.721   1.277   4.747  0.5008 -0.4342 -0.5771
 1605SOL    HW1 4871   4.643   1.271   4.693  0.4927  0.4699 -0.6851
 1605SOL    HW2 4872   4.756   1.364   4.729  0.5203 -0.1182  0.8331
 1606SOL     OW 4873   0.238   3.608   4.772 -0.3262 -0.5345  0.3388
 1606SOL    HW1 4874   0.235   3.694   4.730  1.6662 -1.4491 -1.8593
 1606SOL    HW2 4875   0.207   3.547   4.705  1.4084 -1.8625  0.6684
 1607SOL     OW 4876   1.319   4.124   3.108 -0.1932  0.1902 -0.6311
 1607SOL    HW1 4877   1.259   4.173   3.164 -1.7474 -0.3789 -1.7426
 1607SOL    HW2 4878   1.379   4.080   3.169 -2.4840 -1.2759  0.7191
 1608SOL     OW 4879   2.195   1.948   2.667 -0.2216 -0.4828 -0.4368
 1608SOL    HW1 4880   2.243   1.868   2.644  0.0802 -0.3220 -0.3815
 1608SOL    HW2 4881   2.111   1.917   2.699 -0.1540 -0.7733 -0.5320
 1609SOL     OW 4882   3.112   1.158   0.214 -0.2889  0.0922  0.2690
 1609SOL    HW1 4883   3.020   1.146   0.236 -0.5015  3.6081  2.1341
 1609SOL    HW2 4884   3.117   1.250   0.185  2.1481 -0.9030 -3.1044
 1610SOL     OW 4885   3.378   3.942   2.099  0.0614 -0.2038  0.5345
 1610SOL    HW1 4886   3.378   3.846   2.093  0.3656 -0.1017 -2.0090
 1610SOL    HW2 4887   3.301   3.962   2.152 -1.4492 -1.8117 -0.8946
 1611SOL     OW 4888   2.060   1.598   0.993 -0.5192  0.4620  0.1651
 1611SOL    HW1 4889   2.110   1.678   1.011 -1.1997  0.8867  0.2375
 1611SOL    HW2 4890   2.106   1.557   0.919  0.1624  0.6221  0.4915
 1612SOL     OW 4891   3.094   1.238   4.664 -0.2968  0.2048  0.1431
 1612SOL    HW1 4892   3.070   1.160   4.714 -0.0361 -0.0350 -0.0985
 1612SOL    HW2 4893   3.028   1.303   4.687 -2.8989 -1.2354 -2.5383
 1613SOL     OW 4894   3.516   0.868   3.981  0.2017  0.1277 -0.4191
 1613SOL    HW1 4895   3.455   0.929   4.023 -0.0968 -0.9710  0.8227
 1613SOL    HW2 4896   3.580   0.848   4.049  1.3503  0.4261 -1.3770
 1614SOL     OW 4897   1.719   0.210   1.880 -0.2579 -0.0266  0.1268
 1614SOL    HW1 4898   1.667   0.192   1.802  2.6164 -1.3826 -1.6625
 1614SOL    HW2 4899   1.731   0.124   1.922  0.8644  0.1537  0.2213
 1615SOL     OW 4900   4.687   0.195   1.286  0.2592 -0.4952 -0.2097
 1615SOL    HW1 4901   4.660   0.222   1.198  0.7616 -0.2444 -0.2912
 1615SOL    HW2 4902   4.775   0.233   1.297  0.2428 -0.6115  0.3592
 1616SOL     OW 4903   4.088   3.473   4.198  0.0122 -0.4785  0.6167
 1616SOL    HW1 4904   4.005   3.458   4.244 -0.7102 -0.8143 -0.7332
 1616SOL    HW2 4905   4.087   3.410   4.126  0.0064  1.5228 -1.2455
 1617SOL     OW 4906   1.395   1.562   3.955  0.5050  0.0592  0.7442
 1617SOL    HW1 4907   1.479   1.520   3.938  0.1850 -0.5192  0.5493
 1617SOL    HW2 4908   1.344   1.494   4.000 -0.7179 -0.4985 -1.3540
 1618SOL     OW 4909   0.655   4.257   2.362  0.2168 -0.1033 -0.3388
 1618SOL    HW1 4910   0.738   4.301   2.342  1.6964 -1.9958  1.1467
 1618SOL    HW2 4911   0.678   4.164   2.366 -1.7668 -0.6104  1.1044
 1619SOL     OW 4912   3.265   1.625   0.754 -0.0029  0.1617 -0.3542
 1619SOL    HW1 4913   3.314   1.548   0.725  0.8174  0.6780 -0.3451
 1619SOL    HW2 4914   3.269   1.686   0.681 -0.2999  0.3696 -0.2026
 1620SOL     OW 4915   2.245   3.375   0.802  0.2109 -0.0988  0.3244
 1620SOL    HW1 4916   2.255   3.280   0.798 -2.5642 -0.4688 -0.1177
 1620SOL    HW2 4917   2.225   3.393   0.894 -2.1612 -0.3860 -0.0835
 1621SOL     OW 4918  -0.021   1.611   3.474 -0.5117  0.1233 -0.0565
 1621SOL    HW1 4919  -0.033   1.583   3.565 -1.3644  0.6689  0.0084
 1621SOL    HW2 4920   0.073   1.599   3.458 -0.2016  0.7649  1.1434
 1622SOL     OW 4921   4.899   2.343   0.863  0.4482 -0.4190  0.0392
 1622SOL    HW1 4922   4.965   2.277   0.841  0.1292 -0.6458 -0.2556
 1622SOL    HW2 4923   4.902   2.349   0.959  0.8443 -0.4801  0.0308
 1623SOL     OW 4924   0.675   0.727   2.239 -0.3689  0.3586  0.3948
 1623SOL    HW1 4925   0.664   0.808   2.188 -1.6744 -0.0819 -0.0793
 1623SOL    HW2 4926   0.720   0.667   2.179 -2.2533 -0.2901 -0.4624
 1624SOL     OW 4927   2.985   3.587   1.443  0.1590 -0.2458  0.2331
 1624SOL    HW1 4928   3.018   3.562   1.530  0.4772 -0.6912 -0.0159
 1624SOL    HW2 4929   3.020   3.675   1.429 -2.9066  1.4617  2.1484
 1625SOL     OW 4930   0.094   0.083   0.539  0.1968 -0.1061  0.0841
 1625SOL    HW1 4931   0.104   0.176   0.519  1.1731 -0.3441 -0.5708
 1625SOL    HW2 4932   0.182   0.047   0.532 -0.2708 -1.2128 -0.3263
 1626SOL     OW 4933   4.685   4.859   1.066 -0.4128 -0.0218  0.3362
 1626SOL    HW1 4934   4.726   4.827   1.147 -0.7418  2.1034  1.4130
 1626SOL    HW2 4935   4.759   4.881   1.010 -0.1810 -2.0195 -0.2146
 1627SOL     OW 4936   3.107   4.343   3.056 -0.2248 -0.2211 -0.2706
 1627SOL    HW1 4937   3.180   4.317   3.000 -0.6726 -0.5128 -0.7193
 1627SOL    HW2 4938   3.148   4.358   3.142  0.6249  1.1835 -0.8853
 1628SOL     OW 4939   1.640   3.426   1.399 -0.2681 -0.4156 -0.2549
 1628SOL    HW1 4940   1.650   3.432   1.304 -0.5440 -0.3323 -0.2797
 1628SOL    HW2 4941   1.661   3.513   1.431 -1.5309 -0.0475 -0.3665
 1629SOL     OW 4942   4.378   1.733   1.975 -0.0978  0.1968  0.1329
 1629SOL    HW1 4943   4.474   1.730   1.978 -0.0910 -0.7889 -0.4750
 1629SOL    HW2 4944   4.350   1.660   2.030 -0.4633 -0.2447 -0.6224
 1630SOL     OW 4945   0.011   3.465   0.562 -0.3605  0.1441  0.5737
 1630SOL    HW1 4946   0.068   3.398   0.523 -0.4217 -0.4223  1.4317
 1630SOL    HW2 4947   0.037   3.468   0.654  0.1690  1.8655  0.3849
 1631SOL     OW 4948   1.400   0.104   2.848  0.6673  0.3342  0.1794
 1631SOL    HW1 4949   1.365   0.028   2.893  1.4272 -0.7482 -1.0067
 1631SOL    HW2 4950   1.418   0.167   2.918 -2.8337  0.6930  0.9406
 1632SOL     OW 4951   2.294   0.976   0.860  0.6603  0.3710  0.2854
 1632SOL    HW1 4952   2.303   0.885   0.831 -1.4136  0.2071  0.0088
 1632SOL    HW2 4953   2.374   0.994   0.908  2.1891 -0.8360 -1.6712
 1633SOL     OW 4954   0.496   4.447   4.597 -0.1586  0.1213 -0.0015
 1633SOL    HW1 4955   0.501   4.352   4.585 -3.5000 -0.3005  0.9783
 1633SOL    HW2 4956   0.547   4.463   4.676  0.4619 -0.8157 -0.1796
 1634SOL     OW 4957   2.089   4.448   2.832  0.2401  0.1925 -0.6568
 1634SOL    HW1 4958   2.016   4.388   2.850  0.5343 -0.0729 -0.3386
 1634SOL    HW2 4959   2.078   4.518   2.896  0.0952  0.3033 -0.8022
 1635SOL     OW 4960   1.686   3.191   2.863 -0.2046  0.3175  0.0801
 1635SOL    HW1 4961   1.625   3.139   2.914  1.4033 -0.8416  0.9225
 1635SOL    HW2 4962   1.680   3.156   2.774 -1.4613  0.9096 -0.0946
 1636SOL     OW 4963   1.565   3.739   0.182 -0.1425  0.0534  0.1028
 1636SOL    HW1 4964   1.585   3.763   0.091 -0.9447 -2.1251 -0.7221
 1636SOL    HW2 4965   1.621   3.663   0.199  0.3948  0.7535  1.6615
 1637SOL     OW 4966   2.411   0.147   2.808  0.1065 -0.2237 -0.2793
 1637SOL    HW1 4967   2.492   0.159   2.759  0.3224 -0.3767  0.0417
 1637SOL    HW2 4968   2.390   0.054   2.797 -0.6295  0.0397 -1.2996
 1638SOL     OW 4969   1.292   4.177   4.741 -0.6633  0.0131 -0.3111
 1638SOL    HW1 4970   1.240   4.113   4.790 -1.0072  0.0399 -0.6383
 1638SOL    HW2 4971   1.246   4.187   4.658 -0.7257  0.8297 -0.1885
 1639SOL     OW 4972   1.573   2.907   0.511  0.4733 -0.1385  0.1479
 1639SOL    HW1 4973   1.601   2.997   0.492  0.3285  0.0481  0.8002
 1639SOL    HW2 4974   1.579   2.899   0.606  1.0976 -1.0272  0.0422
 1640SOL     OW 4975   2.744   2.434   0.554  0.0139  0.1559 -0.0285
 1640SOL    HW1 4976   2.733   2.342   0.529  2.2053 -0.1561 -0.0663
 1640SOL    HW2 4977   2.774   2.477   0.473 -0.6147  0.8331  0.0886
 1641SOL     OW 4978   3.624   0.044   4.190 -0.1818  0.0639  0.2806
 1641SOL    HW1 4979   3.636   0.090   4.273 -3.5793  0.6652  0.5811
 1641SOL    HW2 4980   3.596  -0.044   4.215 -0.7204  0.0900 -0.2158
 1642SOL     OW 4981   0.360   1.974   0.162 -0.6628 -0.2413 -0.0539
 1642SOL    HW1 4982   0.333   1.882   0.167  0.4354 -0.5997 -0.3596
 1642SOL    HW2 4983   0.435   1.973   0.102 -1.1510  0.9823 -0.7017
 1643SOL     OW 4984   2.561   2.983   1.634 -0.3653  0.3706 -0.5472
 1643SOL    HW1 4985   2.545   3.057   1.692 -0.9291  1.5799 -2.1950
 1643SOL    HW2 4986   2.598   2.916   1.692 -0.0642  1.8210  1.0364
 1644SOL     OW 4987   3.994   3.219   0.593  0.1413 -0.2412  0.2481
 1644SOL    HW1 4988   4.037   3.294   0.633  0.8755 -0.7003  0.3400
 1644SOL    HW2 4989   4.051   3.145   0.613  0.3968 -0.5365 -1.3946
 1645SOL     OW 4990   4.948   4.771   1.662 -0.4005  0.1425 -0.3242
 1645SOL    HW1 4991   5.022   4.822   1.630  0.2225 -2.0098 -2.5735
 1645SOL    HW2 4992   4.876   4.835   1.667  0.5960  1.4821 -1.9468
 1646SOL     OW 4993   0.730   3.711   0.623 -0.1163  0.7426 -0.3481
 1646SOL    HW1 4994   0.745   3.798   0.586 -1.2723  1.3301  0.4813
 1646SOL    HW2 4995   0.668   3.670   0.563 -2.1304  1.7616  0.9146
 1647SOL     OW 4996   2.361   1.634   2.358  0.8029 -0.0782  0.1474
 1647SOL    HW1 4997   2.396   1.703   2.302 -0.3889 -0.0197 -0.5760
 1647SOL    HW2 4998   2.360   1.556   2.302  0.2574 -0.1886  0.2997
 1648SOL     OW 4999   2.130   1.179   0.787 -0.3577  0.2609  0.4129
 1648SOL    HW1 5000   2.213   1.132   0.785 -0.9520 -0.8001 -0.4500
 1648SOL    HW2 5001   2.086   1.148   0.866 -1.2261 -1.5656 -0.7211
 1649SOL     OW 5002   4.732   4.267   3.283  0.7000  0.7757 -0.0580
 1649SOL    HW1 5003   4.815   4.314   3.295  0.2538  1.4474  0.5212
 1649SOL    HW2 5004   4.706   4.243   3.372  0.9590 -0.6731 -0.3477
 1650SOL     OW 5005   2.247   3.428   3.918  0.2791 -0.2388  0.3568
 1650SOL    HW1 5006   2.156   3.398   3.919 -0.1971  0.9898 -1.2595
 1650SOL    HW2 5007   2.285   3.391   3.997 -1.2117 -2.0435  0.3183
 1651SOL     OW 5008   4.123   0.904   1.237  0.5289  0.1573  0.1768
 1651SOL    HW1 5009   4.098   0.995   1.225  0.0940  0.1028  0.5952
 1651SOL    HW2 5010   4.049   0.854   1.200  0.9417 -0.0264 -0.4040
 1652SOL     OW 5011   4.302   3.445   1.485 -0.3126 -0.0672  0.0457
 1652SOL    HW1 5012   4.357   3.452   1.407  0.4384 -1.7002  0.4016
 1652SOL    HW2 5013   4.348   3.383   1.542 -1.3578  0.3228  1.3608
 1653SOL     OW 5014   3.330   2.438   1.939 -0.0307 -0.2853  0.0909
 1653SOL    HW1 5015   3.354   2.446   2.031 -0.3856  1.0140  0.0907
 1653SOL    HW2 5016   3.395   2.491   1.892  0.2326 -1.0468 -0.4340
 1654SOL     OW 5017   1.785   2.066   2.458  0.4027  0.4276 -0.1141
 1654SOL    HW1 5018   1.820   2.124   2.527 -0.8468  0.6010  0.3918
 1654SOL    HW2 5019   1.850   1.996   2.453  2.2468  2.0926 -1.1257
 1655SOL     OW 5020   1.484   3.255   0.243 -0.0036 -0.2599 -0.6753
 1655SOL    HW1 5021   1.480   3.265   0.148 -2.2722  0.4796 -0.5618
 1655SOL    HW2 5022   1.459   3.164   0.260 -0.8359 -0.0541 -0.7545
 1656SOL     OW 5023   4.207   1.648   0.882  0.1747  0.4384  0.3381
 1656SOL    HW1 5024   4.147   1.653   0.956  1.7682 -2.4086  2.0062
 1656SOL    HW2 5025   4.175   1.573   0.831 -0.2142  1.6552 -1.2944
 1657SOL     OW 5026   2.497   2.694   2.036 -0.2060 -0.5052  0.0532
 1657SOL    HW1 5027   2.584   2.674   2.071  1.5004  1.4999 -2.5797
 1657SOL    HW2 5028   2.482   2.625   1.970  0.2915  0.1731 -0.7919
 1658SOL     OW 5029   4.515   2.713   3.919  0.3918 -0.2427  0.6527
 1658SOL    HW1 5030   4.461   2.657   3.974 -0.4347  0.1594  0.2812
 1658SOL    HW2 5031   4.571   2.761   3.980 -2.5183  2.3769  1.5340
 1659SOL     OW 5032   3.272   2.027   0.784  0.0416  0.2007  0.4005
 1659SOL    HW1 5033   3.323   2.058   0.709 -1.8314 -1.3358 -1.6265
 1659SOL    HW2 5034   3.337   2.003   0.849  1.8246  0.1599 -1.3085
 1660SOL     OW 5035   3.291   4.359   4.948 -0.3253  0.6876  1.1441
 1660SOL    HW1 5036   3.282   4.447   4.985  1.4077  0.3635  2.4879
 1660SOL    HW2 5037   3.362   4.368   4.884 -0.2594  0.3067  1.1627
 1661SOL     OW 5038   1.770   0.750   0.482 -0.4298  0.3007  0.8246
 1661SOL    HW1 5039   1.695   0.705   0.521 -1.7507  0.0028 -1.8262
 1661SOL    HW2 5040   1.734   0.833   0.449 -0.6742 -1.3408 -3.7195
 1662SOL     OW 5041   4.384   3.053   4.758  0.1811 -0.5750 -0.1996
 1662SOL    HW1 5042   4.372   3.138   4.801  2.8674 -0.6489  0.8846
 1662SOL    HW2 5043   4.322   2.995   4.802  0.3118  0.1999  1.0665
 1663SOL     OW 5044   0.252   0.279   4.064  0.4276  0.2997  0.0605
 1663SOL    HW1 5045   0.300   0.201   4.037  0.2139 -0.2411  1.1944
 1663SOL    HW2 5046   0.308   0.352   4.036  1.3466 -0.2931  0.3128
 1664SOL     OW 5047   1.480   3.228   3.169 -0.4536 -0.2477  0.0531
 1664SOL    HW1 5048   1.401   3.189   3.206  0.6934 -0.0511  2.9223
 1664SOL    HW2 5049   1.522   3.157   3.121 -1.0153 -1.0951  0.7983
 1665SOL     OW 5050   2.679   3.996   0.013  0.7004  0.1328 -0.1037
 1665SOL    HW1 5051   2.680   4.053  -0.064  0.6827 -0.3158 -0.4378
 1665SOL    HW2 5052   2.680   4.057   0.088  1.7477  0.5496 -0.4469
 1666SOL     OW 5053   3.969   2.949   2.504 -0.1354  0.5740 -0.0936
 1666SOL    HW1 5054   3.890   2.898   2.485  0.2861  0.0172 -0.3615
 1666SOL    HW2 5055   4.017   2.950   2.421 -0.4576  1.9893 -0.2987
 1667SOL     OW 5056   1.613   4.824   2.893  0.2679  0.5926 -0.1140
 1667SOL    HW1 5057   1.622   4.865   2.979 -1.2031  0.8573 -0.0714
 1667SOL    HW2 5058   1.682   4.863   2.840  2.3077 -0.7661  1.3591
 1668SOL     OW 5059   2.989   3.277   3.671  0.2490  0.3564 -0.1049
 1668SOL    HW1 5060   3.046   3.291   3.746  1.8881 -1.1778 -0.9913
 1668SOL    HW2 5061   2.920   3.219   3.704 -0.3220  1.4795  0.7369
 1669SOL     OW 5062   2.665   1.343   2.428 -0.6067 -0.4501 -0.1772
 1669SOL    HW1 5063   2.572   1.321   2.436 -0.9009 -0.3585 -2.4670
 1669SOL    HW2 5064   2.668   1.438   2.429 -0.6188 -0.4420 -0.6698
 1670SOL     OW 5065   3.875   3.581   3.189 -0.0634  0.1134 -0.3172
 1670SOL    HW1 5066   3.864   3.557   3.281 -0.9859  0.2798 -0.3691
 1670SOL    HW2 5067   3.917   3.505   3.149 -2.8590 -1.4916 -0.4672
 1671SOL     OW 5068   3.935   4.064   1.094  0.1161  0.4635 -0.4731
 1671SOL    HW1 5069   3.867   4.116   1.135 -1.2258 -1.5511 -0.0133
 1671SOL    HW2 5070   3.889   3.987   1.058  1.8992 -0.1291 -1.6583
 1672SOL     OW 5071   2.976   3.011   4.419  0.4330 -0.1203 -0.2762
 1672SOL    HW1 5072   3.044   3.019   4.485  0.6806 -1.3121 -0.3600
 1672SOL    HW2 5073   2.961   2.917   4.411 -0.7368  0.0814 -0.7596
 1673SOL     OW 5074   0.769   3.061   1.723 -0.4250  0.5097  0.4434
 1673SOL    HW1 5075   0.817   2.979   1.727  1.1937  1.4435  0.7087
 1673SOL    HW2 5076   0.817   3.115   1.660 -3.1361  0.2635 -2.0738
 1674SOL     OW 5077   3.025   2.472   0.624  0.1790 -0.4669 -0.3624
 1674SOL    HW1 5078   3.046   2.379   0.631  0.0794 -0.4985 -0.4867
 1674SOL    HW2 5079   2.930   2.475   0.610  0.1355 -0.3354 -0.0511
 1675SOL     OW 5080   0.295   3.301   2.950  0.0771  0.3923 -0.3485
 1675SOL    HW1 5081   0.335   3.221   2.916 -0.9502  0.4149 -1.6789
 1675SOL    HW2 5082   0.343   3.320   3.031  0.2842 -1.6100  0.0373
 1676SOL     OW 5083   0.241   2.304   1.569  0.6466 -0.1741  0.0452
 1676SOL    HW1 5084   0.174   2.329   1.505  1.3095  0.1925 -0.5282
 1676SOL    HW2 5085   0.324   2.322   1.525  1.1223  0.0825  1.0099
 1677SOL     OW 5086   2.267   4.584   4.651  0.5434  0.1886 -0.3143
 1677SOL    HW1 5087   2.283   4.673   4.619  1.0373 -0.0831 -0.8409
 1677SOL    HW2 5088   2.223   4.597   4.735  1.0371  0.9361 -0.1581
 1678SOL     OW 5089   0.646   3.454   3.466  0.1011  0.1436  0.6240
 1678SOL    HW1 5090   0.619   3.544   3.482 -0.2403  0.2457 -0.4399
 1678SOL    HW2 5091   0.733   3.462   3.427 -0.4841  0.1255 -0.7731
 1679SOL     OW 5092   0.422   4.557   0.903  0.4734 -0.0826  0.6027
 1679SOL    HW1 5093   0.408   4.486   0.841  0.2230  0.9313 -0.5593
 1679SOL    HW2 5094   0.337   4.570   0.945  0.6375 -0.7584  1.1540
 1680SOL     OW 5095   3.868   4.914   4.045 -0.2922  0.1315  0.4367
 1680SOL    HW1 5096   3.791   4.962   4.076 -0.7535  0.0763 -0.5786
 1680SOL    HW2 5097   3.834   4.853   3.980  0.3318 -1.3413  1.4261
 1681SOL     OW 5098   0.334   2.028   2.296 -0.2249 -0.0547  0.4268
 1681SOL    HW1 5099   0.263   2.064   2.243  1.5147  1.0292 -1.2791
 1681SOL    HW2 5100   0.303   1.941   2.321 -1.2628 -0.5048 -2.1223
 1682SOL     OW 5101   2.579   1.746   1.255 -0.4174 -0.1276  0.1943
 1682SOL    HW1 5102   2.543   1.658   1.266 -1.7155  0.4440  0.7800
 1682SOL    HW2 5103   2.644   1.755   1.325 -0.3887 -0.5762  0.2246
 1683SOL     OW 5104   1.453   4.731   3.669  0.1851  0.4192  0.2178
 1683SOL    HW1 5105   1.509   4.799   3.706  2.0419 -0.7024 -0.3986
 1683SOL    HW2 5106   1.386   4.778   3.619  1.9512  1.7958 -0.9356
 1684SOL     OW 5107   2.655   0.886   1.835  0.1564 -0.0551 -0.3654
 1684SOL    HW1 5108   2.672   0.792   1.833  0.1645 -0.0588 -0.1948
 1684SOL    HW2 5109   2.684   0.918   1.750  2.3240  0.1497  0.3943
 1685SOL     OW 5110   4.753   1.150   2.279  0.0373  0.0953  0.1518
 1685SOL    HW1 5111   4.833   1.120   2.236 -1.0237  0.5533 -2.3022
 1685SOL    HW2 5112   4.690   1.080   2.263 -1.2813  1.6594 -1.9547
 1686SOL     OW 5113   1.030   2.826   2.522 -0.4774 -0.2361  0.3020
 1686SOL    HW1 5114   0.948   2.809   2.567 -0.7386 -0.0562 -0.0946
 1686SOL    HW2 5115   1.087   2.754   2.547  0.0570  0.8575  2.4789
 1687SOL     OW 5116   3.126   1.627   1.140  0.1387  0.1729  0.1593
 1687SOL    HW1 5117   3.078   1.683   1.079 -1.9818  0.3717  1.9404
 1687SOL    HW2 5118   3.203   1.679   1.165 -0.9624  1.6530  0.5570
 1688SOL     OW 5119   2.740   2.087   4.023  0.2974 -0.3742  0.0393
 1688SOL    HW1 5120   2.710   2.000   4.050  1.5480 -0.4079  1.3929
 1688SOL    HW2 5121   2.747   2.081   3.928 -1.4679 -1.1330 -0.0887
 1689SOL     OW 5122   3.933   1.735   0.421  0.7512 -0.5526  0.6356
 1689SOL    HW1 5123   3.891   1.715   0.504 -0.5417  1.9404  0.6967
 1689SOL    HW2 5124   4.024   1.708   0.432  0.9416  0.8772  3.3955
 1690SOL     OW 5125   2.105   1.715   1.663 -0.6397 -0.7441 -0.4998
 1690SOL    HW1 5126   2.049   1.781   1.704 -0.7040 -0.1277 -1.5378
 1690SOL    HW2 5127   2.058   1.633   1.677  0.2361 -0.8751  2.2411
 1691SOL     OW 5128   1.020   4.022   1.062  0.1822 -0.0555 -0.2059
 1691SOL    HW1 5129   0.929   3.999   1.079  0.5329 -0.6435  1.0685
 1691SOL    HW2 5130   1.068   3.941   1.080  0.8970  0.0667 -1.4955
 1692SOL     OW 5131   4.465   0.718   3.047  0.2990 -0.7129 -0.0856
 1692SOL    HW1 5132   4.371   0.706   3.032  0.0730 -0.7028  1.2700
 1692SOL    HW2 5133   4.474   0.809   3.075  0.6909 -0.7715 -0.0090
 1693SOL     OW 5134   2.094   2.631   0.312  0.2044 -0.3131  0.1386
 1693SOL    HW1 5135   2.053   2.711   0.279  1.0635  0.2020  0.2905
 1693SOL    HW2 5136   2.161   2.609   0.247  1.7885  0.6117  1.3840
 1694SOL     OW 5137   3.404   1.897   3.694  0.2280  0.1869  0.5293
 1694SOL    HW1 5138   3.329   1.908   3.637  1.1477  1.1546 -0.5271
 1694SOL    HW2 5139   3.404   1.803   3.715 -0.8681  0.0525  0.0021
 1695SOL     OW 5140   3.026   3.989   4.302  0.1378 -0.0877  0.3350
 1695SOL    HW1 5141   3.021   3.897   4.331 -0.6673 -0.6074 -1.3069
 1695SOL    HW2 5142   3.117   4.001   4.275  0.1041 -0.5944 -0.0124
 1696SOL     OW 5143   1.212   4.498   4.060 -0.6609 -0.0822 -0.2218
 1696SOL    HW1 5144   1.258   4.490   3.977 -0.4768 -1.5904 -0.0067
 1696SOL    HW2 5145   1.154   4.422   4.063 -2.5371  1.2959 -0.0695
 1697SOL     OW 5146   1.028   1.490   2.694 -0.0830 -0.7024  0.0696
 1697SOL    HW1 5147   1.017   1.395   2.697 -0.6710 -0.7146 -1.5934
 1697SOL    HW2 5148   0.946   1.523   2.659  0.0727  0.4529  0.7393
 1698SOL     OW 5149   0.772   3.052   3.334 -0.3098  1.5224  0.2974
 1698SOL    HW1 5150   0.847   3.056   3.393  0.3829  1.7209 -0.5823
 1698SOL    HW2 5151   0.751   3.144   3.317 -0.0661  1.4728 -0.3020
 1699SOL     OW 5152   2.225   4.182   1.686 -0.0571 -0.4764 -0.2913
 1699SOL    HW1 5153   2.206   4.103   1.736  0.1458 -0.6916 -0.5477
 1699SOL    HW2 5154   2.185   4.166   1.600  1.0552 -0.8416 -0.7628
 1700SOL     OW 5155   0.960   3.930   3.237 -0.4460  0.0220 -0.5953
 1700SOL    HW1 5156   1.006   3.865   3.290  0.3983  0.4637 -0.7717
 1700SOL    HW2 5157   0.998   4.014   3.262 -0.5905  0.3150 -1.3273
 1701SOL     OW 5158   4.818   1.294   1.640 -0.0805  0.3482  0.0824
 1701SOL    HW1 5159   4.823   1.208   1.598 -0.3432  0.1382  0.4784
 1701SOL    HW2 5160   4.892   1.295   1.701  0.1115  0.5290 -0.1511
 1702SOL     OW 5161   4.238   0.882   4.786  0.2830  0.1372  0.1199
 1702SOL    HW1 5162   4.308   0.828   4.751  1.2548  2.1724 -1.3170
 1702SOL    HW2 5163   4.270   0.972   4.775 -1.7827  1.0640  1.1554
 1703SOL     OW 5164   2.785   3.186   1.161  0.1921  0.1115  0.2929
 1703SOL    HW1 5165   2.831   3.101   1.165  1.3115  0.6553 -0.4429
 1703SOL    HW2 5166   2.698   3.165   1.127  0.2311 -0.8239  0.7358
 1704SOL     OW 5167   1.103   2.496   1.012  0.0496 -0.0363  0.2805
 1704SOL    HW1 5168   1.055   2.503   0.930 -0.2394 -0.5091  0.4058
 1704SOL    HW2 5169   1.067   2.418   1.055  1.5223 -0.9209 -0.0098
 1705SOL     OW 5170   1.600   4.574   1.254  0.4832 -0.9254  0.2506
 1705SOL    HW1 5171   1.668   4.619   1.204  0.2209 -0.2071  0.5286
 1705SOL    HW2 5172   1.562   4.642   1.309 -2.6327 -0.4847 -2.1646
 1706SOL     OW 5173   1.093   2.197   2.679  0.4755 -0.1968 -0.3312
 1706SOL    HW1 5174   1.140   2.204   2.762 -0.0132  0.0057 -0.0697
 1706SOL    HW2 5175   1.128   2.117   2.639  1.7535  0.4707 -0.6031
 1707SOL     OW 5176   0.118   0.783   3.742  0.0698  0.0953  0.7351
 1707SOL    HW1 5177   0.030   0.784   3.705 -0.7850 -0.3950  2.6520
 1707SOL    HW2 5178   0.170   0.837   3.682 -1.7620  1.2351  0.1047
 1708SOL     OW 5179   1.064   2.106   1.927 -0.6063  0.1338 -0.6156
 1708SOL    HW1 5180   0.991   2.052   1.955  0.7760 -1.5449 -0.0297
 1708SOL    HW2 5181   1.043   2.132   1.837 -1.5023 -1.0639 -0.7664
 1709SOL     OW 5182   0.238   4.093   3.155 -0.0357  0.7992 -0.8409
 1709SOL    HW1 5183   0.255   4.156   3.085 -0.3310 -0.0176 -1.6619
 1709SOL    HW2 5184   0.143   4.091   3.164 -0.1365 -0.7025 -1.9427
 1710SOL     OW 5185   0.512   1.436   1.943  0.1588  0.1239  0.3530
 1710SOL    HW1 5186   0.490   1.384   1.866  0.1540  0.4335  0.1422
 1710SOL    HW2 5187   0.557   1.513   1.908  0.8077 -0.0793  0.7129
 1711SOL     OW 5188   0.552   2.479   1.493 -0.5168 -0.0900  0.5247
 1711SOL    HW1 5189   0.542   2.573   1.508 -1.4868 -0.0566 -0.2792
 1711SOL    HW2 5190   0.636   2.457   1.535 -0.9321  0.8597  1.9357
 1712SOL     OW 5191   0.991   2.633   4.511 -0.0188 -0.0141 -0.4168
 1712SOL    HW1 5192   0.917   2.671   4.465  0.2788  2.7636  1.1559
 1712SOL    HW2 5193   0.953   2.597   4.591 -0.1149 -2.0702 -1.3256
 1713SOL     OW 5194   3.798   4.037   2.237 -0.2250 -0.3283 -0.3637
 1713SOL    HW1 5195   3.877   3.982   2.233  0.7824  1.0183  0.1294
 1713SOL    HW2 5196   3.738   3.989   2.294  0.6184 -0.9299  0.0391
 1714SOL     OW 5197   1.066   4.459   4.982  0.0049  0.4226  0.4031
 1714SOL    HW1 5198   1.070   4.414   4.897 -1.5920 -1.3373  1.1730
 1714SOL    HW2 5199   1.142   4.427   5.030 -0.2760 -0.2856  0.3885
 1715SOL     OW 5200   1.437   2.055   2.150 -1.0544  0.0529  0.6625
 1715SOL    HW1 5201   1.437   2.140   2.106 -0.3376 -0.0001  0.5432
 1715SOL    HW2 5202   1.420   1.992   2.080  2.3602 -0.2496 -0.0748
 1716SOL     OW 5203   1.227   0.553   3.250  0.3252 -0.0208 -0.0895
 1716SOL    HW1 5204   1.277   0.634   3.243 -0.0429  0.1336 -1.2796
 1716SOL    HW2 5205   1.188   0.542   3.163 -0.2630 -1.0639  0.2876
 1717SOL     OW 5206   2.778   1.216   1.751 -0.3502  0.1520  0.0628
 1717SOL    HW1 5207   2.736   1.162   1.685 -2.9548  1.6436  0.3313
 1717SOL    HW2 5208   2.801   1.155   1.822 -2.2335 -0.7871 -0.0746
 1718SOL     OW 5209   2.536   3.755   4.533 -0.7571 -0.2964 -0.0074
 1718SOL    HW1 5210   2.577   3.704   4.463 -0.5527 -0.3722  0.1672
 1718SOL    HW2 5211   2.608   3.782   4.590 -0.7992  0.6262 -0.3717
 1719SOL     OW 5212   1.288   4.497   4.738 -0.3811  0.0073 -0.1600
 1719SOL    HW1 5213   1.297   4.461   4.826  1.2225 -0.6804 -0.5652
 1719SOL    HW2 5214   1.349   4.571   4.736 -1.3044  0.7806 -0.3299
 1720SOL     OW 5215   1.447   1.370   0.588 -0.3122 -0.4556 -0.4704
 1720SOL    HW1 5216   1.443   1.464   0.569  1.1254 -0.6691 -2.1122
 1720SOL    HW2 5217   1.356   1.340   0.577 -0.5087  0.4708 -1.6705
 1721SOL     OW 5218   1.762   2.021   0.089  0.3018  0.0481  0.1484
 1721SOL    HW1 5219   1.700   1.953   0.116 -0.2134  0.1426 -0.7572
 1721SOL    HW2 5220   1.830   1.974   0.041 -0.0438  0.1577 -0.4601
 1722SOL     OW 5221   3.120   4.867   1.832  0.2487  0.7482 -0.3367
 1722SOL    HW1 5222   3.065   4.833   1.903 -0.4774 -1.1310 -1.7254
 1722SOL    HW2 5223   3.206   4.830   1.848 -0.4746 -1.7365 -1.6924
 1723SOL     OW 5224   4.923   2.965   3.805  0.2110  0.7160 -0.2506
 1723SOL    HW1 5225   4.886   3.046   3.840 -0.4206  0.2562  0.1675
 1723SOL    HW2 5226   4.876   2.952   3.722  0.1387  0.6503 -0.1993
 1724SOL     OW 5227   2.601   4.101   4.615 -0.2899  0.3200 -0.6995
 1724SOL    HW1 5228   2.510   4.114   4.643 -0.4613 -1.2634 -0.4011
 1724SOL    HW2 5229   2.653   4.158   4.671 -1.0615  0.9004 -0.5624
 1725SOL     OW 5230   3.349   1.756   1.272  0.0158  0.3687  0.3685
 1725SOL    HW1 5231   3.305   1.807   1.340  0.2809  0.1128  0.7354
 1725SOL    HW2 5232   3.422   1.811   1.244  0.1676  0.2884  0.6038
 1726SOL     OW 5233   1.975   0.895   4.003  0.0969  0.2675  0.5526
 1726SOL    HW1 5234   2.069   0.891   4.024  0.0926  0.7718  0.6803
 1726SOL    HW2 5235   1.938   0.953   4.070 -0.1414  0.8377 -0.0683
 1727SOL     OW 5236   1.426   4.931   2.376  0.6004  0.1157 -0.1710
 1727SOL    HW1 5237   1.352   4.912   2.319 -0.1400 -2.3106  1.4373
 1727SOL    HW2 5238   1.434   5.027   2.375 -1.1351  0.3015 -2.0664
 1728SOL     OW 5239   4.543   4.696   3.817  0.5370 -0.0976  0.0110
 1728SOL    HW1 5240   4.494   4.764   3.771 -0.3978 -0.9944 -0.3536
 1728SOL    HW2 5241   4.619   4.679   3.760 -0.3978 -0.9151 -1.0301
 1729SOL     OW 5242   1.439   1.495   4.903  0.7089 -0.2817 -0.3789
 1729SOL    HW1 5243   1.462   1.449   4.983 -0.7719 -0.1749  0.1484
 1729SOL    HW2 5244   1.391   1.430   4.851 -1.2860  0.5453  0.3170
 1730SOL     OW 5245   1.682   0.021   3.581 -0.2662  0.0276 -0.3194
 1730SOL    HW1 5246   1.607   0.013   3.641  0.2991 -2.4144  0.1705
 1730SOL    HW2 5247   1.745   0.075   3.628  0.1535 -1.8112  1.3790
 1731SOL     OW 5248   4.024   0.995   2.458 -0.3700 -0.0058 -0.0456
 1731SOL    HW1 5249   4.086   1.045   2.511 -0.3147  0.7061 -0.7601
 1731SOL    HW2 5250   3.993   1.058   2.393 -1.3452 -0.5320 -0.1092
 1732SOL     OW 5251   3.846   0.811   4.362  0.1203 -0.6415  0.4757
 1732SOL    HW1 5252   3.796   0.730   4.364  0.2394 -0.7204  0.2751
 1732SOL    HW2 5253   3.820   0.854   4.280 -1.2705  0.3702  1.4045
 1733SOL     OW 5254  -0.014   4.764   3.617  0.3447  0.7813 -0.1927
 1733SOL    HW1 5255   0.066   4.715   3.634  0.2906  1.0486  0.9265
 1733SOL    HW2 5256  -0.013   4.834   3.682 -0.5963  1.0309 -0.4349
 1734SOL     OW 5257   0.725   4.888   2.642  0.5288 -0.7950  0.5279
 1734SOL    HW1 5258   0.698   4.796   2.633  2.0058 -1.0174 -3.7869
 1734SOL    HW2 5259   0.643   4.936   2.651 -0.6415 -2.3237 -1.1680
 1735SOL     OW 5260   3.424   3.344   4.614  0.3605  0.1279 -0.0177
 1735SOL    HW1 5261   3.341   3.387   4.593 -0.3506 -0.9874  0.4566
 1735SOL    HW2 5262   3.409   3.303   4.699  1.3972 -0.1152  0.0589
 1736SOL     OW 5263   3.191   0.652   4.877 -0.2363 -0.1656  0.2729
 1736SOL    HW1 5264   3.142   0.724   4.837  0.3642  0.5631  0.8200
 1736SOL    HW2 5265   3.266   0.694   4.918  0.1668 -1.1204  0.5401
 1737SOL     OW 5266   0.984   3.261   4.043  0.3149 -0.8986 -0.0737
 1737SOL    HW1 5267   1.016   3.301   3.962  0.2128 -0.4581  0.1048
 1737SOL    HW2 5268   1.064   3.237   4.091  0.3848 -0.1308  0.2051
 1738SOL     OW 5269   0.187   4.185   2.076  0.1449 -0.4242 -0.0302
 1738SOL    HW1 5270   0.119   4.252   2.084  1.5609  1.0765  0.2477
 1738SOL    HW2 5271   0.236   4.191   2.158  3.0586  1.4893 -1.7041
 1739SOL     OW 5272   2.116   0.311   4.176 -0.2449 -0.0524  0.0902
 1739SOL    HW1 5273   2.042   0.275   4.223 -1.1113  0.7650 -0.6153
 1739SOL    HW2 5274   2.146   0.239   4.120 -0.5693 -0.3581  0.3072
 1740SOL     OW 5275   1.125   0.017   2.524  0.0804 -0.1402  0.2638
 1740SOL    HW1 5276   1.145  -0.076   2.516  0.4927 -0.0929  0.6815
 1740SOL    HW2 5277   1.211   0.060   2.519 -0.2863  0.5115 -3.5020
 1741SOL     OW 5278   2.194   1.987   2.306 -0.4286  0.4689 -0.2180
 1741SOL    HW1 5279   2.169   1.936   2.229  1.6759 -1.4178  0.2163
 1741SOL    HW2 5280   2.281   2.020   2.285 -0.3895  1.0648  0.8333
 1742SOL     OW 5281   2.092   4.668   3.308  0.0110  0.3545  0.2837
 1742SOL    HW1 5282   2.092   4.578   3.340  1.1096  0.1017 -0.3734
 1742SOL    HW2 5283   2.167   4.708   3.350 -0.5731  1.0280  0.7069
 1743SOL     OW 5284   1.082   1.563   4.625  0.3249 -0.4804 -0.0515
 1743SOL    HW1 5285   1.023   1.560   4.550  0.7915  0.4642 -0.4765
 1743SOL    HW2 5286   1.058   1.643   4.672  0.4566 -0.7298  0.4487
 1744SOL     OW 5287   0.101   1.595   3.070 -0.3750  0.3714 -0.4166
 1744SOL    HW1 5288   0.072   1.509   3.101 -0.6405  0.6141  0.0340
 1744SOL    HW2 5289   0.196   1.593   3.080 -0.4917  0.6277  0.9583
 1745SOL     OW 5290   4.806   4.570   1.515 -0.2916 -0.0097 -0.0113
 1745SOL    HW1 5291   4.861   4.644   1.543  0.2956 -0.6793  0.6601
 1745SOL    HW2 5292   4.827   4.500   1.577 -2.8114  0.0625  1.0399
 1746SOL     OW 5293   0.084   2.534   1.691 -0.3968 -0.2318  0.1687
 1746SOL    HW1 5294   0.126   2.453   1.660  0.5546  0.4765 -0.4461
 1746SOL    HW2 5295   0.107   2.538   1.784 -2.6194 -1.9696  0.8838
 1747SOL     OW 5296   1.086   0.490   2.377 -0.1629 -0.3544  0.6360
 1747SOL    HW1 5297   1.033   0.411   2.377 -1.2028  0.3246  1.4245
 1747SOL    HW2 5298   1.126   0.492   2.290 -1.0053 -1.1571  0.2160
 1748SOL     OW 5299   4.847   3.200   0.886  0.3727  0.0570  0.4188
 1748SOL    HW1 5300   4.904   3.271   0.917  0.3374  0.0756  0.4407
 1748SOL    HW2 5301   4.907   3.127   0.870  0.1829 -0.5988  2.4110
 1749SOL     OW 5302   0.611   3.486   2.738  0.4289 -0.0195 -0.2801
 1749SOL    HW1 5303   0.700   3.466   2.771  0.6769  2.5807  0.8529
 1749SOL    HW2 5304   0.573   3.541   2.807 -1.8854 -0.6212 -1.0242
 1750SOL     OW 5305   0.386   2.283   0.234 -0.0088 -0.1388  0.3547
 1750SOL    HW1 5306   0.395   2.195   0.196  1.6045  0.1006  0.0950
 1750SOL    HW2 5307   0.294   2.306   0.221 -0.3331 -1.5674 -0.0577
 1751SOL     OW 5308   2.721   3.822   1.335 -0.2362  0.1691  0.4489
 1751SOL    HW1 5309   2.695   3.749   1.391 -2.1534  0.3111 -0.1609
 1751SOL    HW2 5310   2.726   3.897   1.394 -1.6322  0.1949  0.5872
 1752SOL     OW 5311   3.345   2.735   0.393 -0.4401 -0.0885  0.0364
 1752SOL    HW1 5312   3.411   2.804   0.393 -1.2906  0.9252 -3.4430
 1752SOL    HW2 5313   3.281   2.762   0.459  1.3326  0.1329  1.7610
 1753SOL     OW 5314   0.790   2.010   4.235  0.4590  0.3062  0.2184
 1753SOL    HW1 5315   0.721   2.059   4.191  0.6221 -0.2487 -0.6743
 1753SOL    HW2 5316   0.753   1.922   4.247  1.5425 -0.4804 -1.7248
 1754SOL     OW 5317   4.816   4.922   1.879 -0.1741  0.2519 -0.0977
 1754SOL    HW1 5318   4.764   4.917   1.959 -0.5075  1.2913 -0.2427
 1754SOL    HW2 5319   4.902   4.952   1.909 -0.4108  1.0176 -0.1669
 1755SOL     OW 5320   3.962   4.094   3.731 -0.0701  0.4479 -0.2161
 1755SOL    HW1 5321   3.945   4.116   3.640  0.1838  0.9336 -0.1483
 1755SOL    HW2 5322   3.923   4.166   3.781 -2.9530 -1.2633  0.2463
 1756SOL     OW 5323   4.664   0.567   3.003 -0.4283  0.2304  0.0858
 1756SOL    HW1 5324   4.593   0.623   3.033  0.0680  1.3712 -0.7897
 1756SOL    HW2 5325   4.677   0.592   2.911  1.0252 -0.0068  0.1996
 1757SOL     OW 5326   1.113   2.033   4.947 -0.0903  0.1103 -0.3279
 1757SOL    HW1 5327   1.072   2.043   5.033 -1.2292 -1.1781 -0.6745
 1757SOL    HW2 5328   1.076   2.103   4.894 -1.1562 -0.4751 -0.3782
 1758SOL     OW 5329   1.750   3.492   4.133  0.6878  0.1167  0.0104
 1758SOL    HW1 5330   1.798   3.415   4.163  0.1101  0.1642  1.0996
 1758SOL    HW2 5331   1.673   3.496   4.189  1.1494  1.9883  0.5880
 1759SOL     OW 5332   4.885   0.779   0.731 -0.3784  0.2253  0.4637
 1759SOL    HW1 5333   4.959   0.783   0.671 -0.8446 -1.1690 -0.2449
 1759SOL    HW2 5334   4.923   0.751   0.814  0.0161  0.4382  0.3584
 1760SOL     OW 5335   3.441   2.756   1.806  0.2466 -0.0144 -0.4411
 1760SOL    HW1 5336   3.493   2.709   1.740  1.9045  1.4829 -0.2661
 1760SOL    HW2 5337   3.495   2.753   1.885 -0.3753  0.7665  0.0177
 1761SOL     OW 5338   0.399   3.318   3.897 -0.1266  0.2595 -0.0239
 1761SOL    HW1 5339   0.422   3.273   3.979 -0.1052 -0.8598 -0.6193
 1761SOL    HW2 5340   0.465   3.386   3.887 -0.0183  0.2836  0.7957
 1762SOL     OW 5341   1.359   4.325   2.698  0.3282  0.1192 -0.2382
 1762SOL    HW1 5342   1.414   4.262   2.743 -0.3477  0.0589  0.5233
 1762SOL    HW2 5343   1.292   4.272   2.655 -1.1605  0.3437  1.6551
 1763SOL     OW 5344   1.517   1.179   1.021  0.2132 -0.7422  0.0164
 1763SOL    HW1 5345   1.600   1.184   1.068  0.8594 -0.3274 -1.1203
 1763SOL    HW2 5346   1.537   1.215   0.934 -1.4850  0.6662  0.1560
 1764SOL     OW 5347   0.023   0.590   2.853  0.3549  0.1536 -0.2523
 1764SOL    HW1 5348  -0.054   0.647   2.856 -0.3600 -0.6763 -1.3824
 1764SOL    HW2 5349   0.074   0.612   2.930 -0.6753  1.2282  0.1405
 1765SOL     OW 5350   3.538   3.984   2.674  0.7539 -0.2972 -0.3509
 1765SOL    HW1 5351   3.530   3.893   2.647 -1.3124 -0.0145 -0.7911
 1765SOL    HW2 5352   3.560   4.032   2.594 -0.2796 -0.1377 -0.5460
 1766SOL     OW 5353   3.248   2.301   3.846 -0.1962  0.0373 -0.3566
 1766SOL    HW1 5354   3.270   2.372   3.786 -1.5111  1.7987  1.1397
 1766SOL    HW2 5355   3.320   2.238   3.837  0.6583  1.2031 -2.2358
 1767SOL     OW 5356   1.314   4.759   4.399 -0.1403 -0.1389 -0.3502
 1767SOL    HW1 5357   1.278   4.837   4.355  1.2800  0.1947 -0.9738
 1767SOL    HW2 5358   1.313   4.692   4.331  0.7056 -0.0321 -0.4748
 1768SOL     OW 5359   4.086   4.725   2.933 -0.1293  0.0044 -0.3520
 1768SOL    HW1 5360   4.100   4.768   2.848  1.2806  0.2828 -0.0129
 1768SOL    HW2 5361   4.171   4.732   2.977 -0.5283 -1.1216  0.6381
 1769SOL     OW 5362   0.034   0.566   3.539  0.5239  0.5924 -0.1162
 1769SOL    HW1 5363  -0.025   0.637   3.515  0.6902  0.3398 -1.3732
 1769SOL    HW2 5364   0.116   0.610   3.561 -0.1058  0.9473  1.6983
 1770SOL     OW 5365   4.253   2.113   1.410  0.6972 -0.5641 -0.6992
 1770SOL    HW1 5366   4.296   2.165   1.479  1.4045 -0.3955 -1.2512
 1770SOL    HW2 5367   4.226   2.178   1.346 -1.0264 -0.5960 -0.0456
 1771SOL     OW 5368   0.025   3.773   0.519  0.1522 -0.1123  0.2026
 1771SOL    HW1 5369   0.023   3.797   0.427 -1.7565  0.0724  0.2640
 1771SOL    HW2 5370   0.037   3.678   0.519 -2.5229 -0.5279 -0.3752
 1772SOL     OW 5371   2.731   2.184   2.895 -0.4381 -0.5990  0.0037
 1772SOL    HW1 5372   2.707   2.100   2.935  2.0166 -1.1473  0.4571
 1772SOL    HW2 5373   2.670   2.193   2.821 -2.7551 -1.2568  1.7324
 1773SOL     OW 5374   2.122   3.826   2.470  0.0717 -0.3381  0.1899
 1773SOL    HW1 5375   2.047   3.767   2.474  0.7922 -1.1841  1.8640
 1773SOL    HW2 5376   2.155   3.817   2.380 -0.4385 -1.6985  0.1277
 1774SOL     OW 5377   3.274   0.133   0.167 -0.1507 -0.2126  0.5758
 1774SOL    HW1 5378   3.291   0.224   0.142  0.0589 -0.1548  0.9140
 1774SOL    HW2 5379   3.322   0.122   0.249 -1.0638 -0.3001  1.1131
 1775SOL     OW 5380   0.561   3.446   0.134 -0.3771 -0.5371  0.4268
 1775SOL    HW1 5381   0.495   3.500   0.090 -0.0409 -0.0328  0.5339
 1775SOL    HW2 5382   0.512   3.371   0.166 -0.8277 -0.3713  0.1473
 1776SOL     OW 5383   0.138   2.466   3.744 -0.0352  0.4082 -0.2407
 1776SOL    HW1 5384   0.104   2.476   3.833  1.2628  0.8450  0.2154
 1776SOL    HW2 5385   0.149   2.555   3.712  0.7319  0.2812 -0.3517
 1777SOL     OW 5386   1.276   2.810   1.102 -0.3765 -0.4940 -0.5224
 1777SOL    HW1 5387   1.291   2.738   1.041  0.5005  0.0233 -0.9455
 1777SOL    HW2 5388   1.342   2.875   1.078 -0.7599  0.1929  0.2474
 1778SOL     OW 5389   1.561   4.480   2.429  0.0199 -0.3769 -0.1393
 1778SOL    HW1 5390   1.592   4.547   2.369  0.3909 -0.2614  0.1804
 1778SOL    HW2 5391   1.504   4.527   2.490  0.1000 -0.3918 -0.0528
 1779SOL     OW 5392   3.634   2.346   2.328 -0.0001 -0.3111  0.1426
 1779SOL    HW1 5393   3.665   2.363   2.417 -0.6071  0.2829  0.2528
 1779SOL    HW2 5394   3.662   2.256   2.309 -0.2945 -0.6182  1.1176
 1780SOL     OW 5395   4.382   3.336   4.452  0.0430 -0.1897 -0.4031
 1780SOL    HW1 5396   4.361   3.271   4.385  1.7064 -1.3560  0.1189
 1780SOL    HW2 5397   4.329   3.310   4.527  0.8365 -1.1169 -0.1335
 1781SOL     OW 5398   1.118   2.035   0.324  0.3792  0.7871  0.0252
 1781SOL    HW1 5399   1.156   2.032   0.412  0.7347  2.1629 -0.0486
 1781SOL    HW2 5400   1.186   2.075   0.270 -0.5656  1.8582 -0.4366
 1782SOL     OW 5401   3.949   2.359   0.800 -0.3114 -0.3359 -0.4373
 1782SOL    HW1 5402   3.951   2.305   0.879  0.7394 -1.3433 -1.1193
 1782SOL    HW2 5403   3.856   2.370   0.781 -0.5895 -2.5389 -0.6604
 1783SOL     OW 5404   2.809   2.158   1.253  0.4088 -0.1407  0.0342
 1783SOL    HW1 5405   2.890   2.122   1.291 -0.3496 -0.1327  1.7558
 1783SOL    HW2 5406   2.740   2.102   1.288 -0.4953  0.9724  0.0861
 1784SOL     OW 5407   4.576   4.928   2.693  0.0429  0.7973 -0.4080
 1784SOL    HW1 5408   4.629   4.973   2.759  0.5113  1.5613 -1.2737
 1784SOL    HW2 5409   4.598   4.972   2.611 -0.9411  0.2331 -0.9940
 1785SOL     OW 5410   4.164   4.495   0.286  0.1394  1.0409  0.3578
 1785SOL    HW1 5411   4.242   4.525   0.238  0.6951 -1.9405 -0.8740
 1785SOL    HW2 5412   4.197   4.423   0.341 -1.5878  0.2686  0.4340
 1786SOL     OW 5413   2.916   1.517   3.176 -0.2941 -0.0708  0.0863
 1786SOL    HW1 5414   2.887   1.579   3.243 -1.2659  0.1059 -0.4891
 1786SOL    HW2 5415   2.991   1.560   3.135  0.0741 -0.0160  0.7905
 1787SOL     OW 5416   1.003   2.707   3.872 -0.2543 -0.6553 -0.2150
 1787SOL    HW1 5417   0.988   2.799   3.850 -0.6761 -1.2640 -2.8332
 1787SOL    HW2 5418   0.931   2.684   3.930  0.0806  0.7202  0.8129
 1788SOL     OW 5419   4.342   1.423   1.155  0.1854  0.3264  0.2571
 1788SOL    HW1 5420   4.251   1.447   1.172 -0.0571  0.3364 -0.9635
 1788SOL    HW2 5421   4.348   1.415   1.059  1.2490 -0.5315  0.3661
 1789SOL     OW 5422   0.745   3.992   0.153  0.3309 -0.5741  0.0260
 1789SOL    HW1 5423   0.654   4.016   0.170  0.3976  0.2897 -0.7619
 1789SOL    HW2 5424   0.794   4.033   0.224  0.0856 -1.2516  0.5933
 1790SOL     OW 5425   4.319   4.890   0.643  0.9185  0.1498 -0.2597
 1790SOL    HW1 5426   4.400   4.849   0.671  0.7031 -0.9208 -1.1205
 1790SOL    HW2 5427   4.334   4.912   0.551 -0.0709 -0.9723 -0.7253
 1791SOL     OW 5428   4.111   3.501   0.622 -0.1074  0.4008  0.1888
 1791SOL    HW1 5429   4.030   3.553   0.627 -0.8952 -0.9376  2.1731
 1791SOL    HW2 5430   4.162   3.530   0.697  0.7671  0.3735 -0.3828
 1792SOL     OW 5431   4.493   4.025   3.386 -0.1621 -0.1636 -0.3790
 1792SOL    HW1 5432   4.487   4.082   3.310 -4.0271  0.6715  0.3211
 1792SOL    HW2 5433   4.403   3.995   3.401  1.1170 -3.8497  1.3032
 1793SOL     OW 5434   1.236   0.332   1.825  0.6226 -0.1510 -0.1673
 1793SOL    HW1 5435   1.268   0.290   1.745  0.2334 -1.4289  0.3074
 1793SOL    HW2 5436   1.194   0.260   1.873 -0.3903  0.8847  0.5292
 1794SOL     OW 5437   4.597   3.301   3.266  0.8680 -0.4071 -0.2343
 1794SOL    HW1 5438   4.533   3.367   3.290  1.6651  0.2992  0.0079
 1794SOL    HW2 5439   4.612   3.250   3.346 -0.1852 -1.2855 -0.5724
 1795SOL     OW 5440   2.025   3.957   4.362  0.2291  0.0394 -0.3306
 1795SOL    HW1 5441   1.964   3.924   4.428  1.1103  0.9397  0.9709
 1795SOL    HW2 5442   2.103   3.902   4.371  0.8597  1.0162  0.3302
 1796SOL     OW 5443   3.786   2.872   4.158 -0.4717 -0.1910  0.2359
 1796SOL    HW1 5444   3.775   2.922   4.239 -3.7303  0.3765 -0.3826
 1796SOL    HW2 5445   3.738   2.790   4.173 -2.3950  0.5192 -1.4700
 1797SOL     OW 5446   3.040   3.558   1.720 -0.0932 -0.5172  0.2586
 1797SOL    HW1 5447   2.955   3.539   1.760 -0.0392 -0.0936  0.5869
 1797SOL    HW2 5448   3.070   3.637   1.765 -0.0102 -0.0562 -0.6013
 1798SOL     OW 5449   2.291   0.674   1.954  0.1501 -0.1598 -0.2442
 1798SOL    HW1 5450   2.327   0.649   2.039 -1.0972 -1.3164 -0.0153
 1798SOL    HW2 5451   2.197   0.682   1.970  0.1623  1.8820 -1.0185
 1799SOL     OW 5452   4.876   3.938   0.999  0.4703 -0.0330  0.0334
 1799SOL    HW1 5453   4.850   3.901   0.915  0.3329  2.3926 -1.0886
 1799SOL    HW2 5454   4.969   3.958   0.989  0.5754 -0.1877  0.6463
 1800SOL     OW 5455   1.705   1.396   2.056  0.0258 -0.0257  0.4854
 1800SOL    HW1 5456   1.628   1.355   2.018  0.0082 -0.3859  0.9047
 1800SOL    HW2 5457   1.671   1.458   2.120 -0.1055  2.7413 -1.9941
 1801SOL     OW 5458   4.083   4.137   4.084 -0.4488 -0.2005 -0.6911
 1801SOL    HW1 5459   4.009   4.191   4.056 -1.0815 -2.2287 -3.3196
 1801SOL    HW2 5460   4.149   4.149   4.016 -0.1376 -1.7930 -0.7108
 1802SOL     OW 5461   2.697   1.930   2.919  0.3417 -0.3086  0.0468
 1802SOL    HW1 5462   2.605   1.925   2.894  0.4391 -3.6726 -0.1431
 1802SOL    HW2 5463   2.705   1.870   2.993  2.6894 -1.8381 -1.2835
 1803SOL     OW 5464   4.965   0.352   3.707 -0.1729 -0.4113 -0.0861
 1803SOL    HW1 5465   5.016   0.422   3.667  0.3074 -1.3761 -1.1787
 1803SOL    HW2 5466   4.881   0.354   3.660 -0.6049  0.1555  0.6664
 1804SOL     OW 5467   4.284   1.113   3.331 -0.1415 -0.1887 -0.2533
 1804SOL    HW1 5468   4.220   1.045   3.353 -1.3016  0.6029 -1.0294
 1804SOL    HW2 5469   4.320   1.140   3.416 -0.2262 -1.2237  0.1261
 1805SOL     OW 5470   0.834   3.323   0.174  0.0111 -0.1033  0.1824
 1805SOL    HW1 5471   0.834   3.293   0.265 -1.0186  0.4745  0.3880
 1805SOL    HW2 5472   0.762   3.387   0.170  0.8132  0.7743 -0.7435
 1806SOL     OW 5473   0.663   4.665   1.318 -0.0393 -0.0710  0.0507
 1806SOL    HW1 5474   0.659   4.626   1.405  1.0362  1.3585  0.7742
 1806SOL    HW2 5475   0.602   4.613   1.266 -0.7810 -0.8955  1.6704
 1807SOL     OW 5476   0.418   1.399   3.329  0.0346 -0.0333 -0.6304
 1807SOL    HW1 5477   0.476   1.372   3.401 -1.7620 -0.1758  0.8325
 1807SOL    HW2 5478   0.402   1.318   3.280  0.3990 -0.1515 -0.5601
 1808SOL     OW 5479   0.095   1.818   4.085  0.3711  0.4683 -0.0066
 1808SOL    HW1 5480   0.190   1.821   4.086  0.3493  1.5212 -0.0321
 1808SOL    HW2 5481   0.074   1.729   4.055  1.3316  0.0480  0.5144
 1809SOL     OW 5482   2.934   1.920   1.056  0.1684  0.2600 -0.9439
 1809SOL    HW1 5483   2.935   1.908   1.151 -1.2349  1.2612 -0.7659
 1809SOL    HW2 5484   2.882   1.847   1.023 -0.4565  0.6238 -0.7916
 1810SOL     OW 5485   4.453   4.309   0.649  0.1707 -0.4066 -0.2561
 1810SOL    HW1 5486   4.444   4.257   0.729  1.9402 -1.1119 -0.4820
 1810SOL    HW2 5487   4.456   4.399   0.680  0.8144 -0.6672  0.4846
 1811SOL     OW 5488   0.828   4.629   1.104  0.0728 -0.0820  0.1718
 1811SOL    HW1 5489   0.778   4.663   1.177 -1.5045 -1.2497 -0.3135
 1811SOL    HW2 5490   0.774   4.559   1.067  2.7020 -2.5553  0.5829
 1812SOL     OW 5491   3.005   0.493   4.726 -0.0196  0.1845 -0.6675
 1812SOL    HW1 5492   2.968   0.425   4.783  0.2616  1.8981  1.7513
 1812SOL    HW2 5493   3.075   0.532   4.778 -0.7944  2.9335 -1.5134
 1813SOL     OW 5494   0.290   3.296   1.049  0.4204 -0.6651 -0.6489
 1813SOL    HW1 5495   0.309   3.217   1.099 -0.8106 -0.8111 -0.3705
 1813SOL    HW2 5496   0.194   3.304   1.052  0.4624  0.3774 -1.3723
 1814SOL     OW 5497   3.429   4.016   4.904  0.9419 -0.5569 -0.3890
 1814SOL    HW1 5498   3.465   3.979   4.824 -0.9098 -0.8582 -1.1375
 1814SOL    HW2 5499   3.334   4.009   4.894  0.5582  1.8841  0.6492
 1815SOL     OW 5500   2.354   3.141   0.698  0.0198 -0.1367 -0.2798
 1815SOL    HW1 5501   2.367   3.075   0.766 -0.9370 -0.9346 -0.8489
 1815SOL    HW2 5502   2.443   3.166   0.672  0.3976 -1.0852  0.0499
 1816SOL     OW 5503   3.207   0.067   3.169  0.1330  0.1528 -0.7604
 1816SOL    HW1 5504   3.120   0.101   3.149  0.5033  1.3272 -0.4434
 1816SOL    HW2 5505   3.266   0.140   3.152  0.7389  0.4183  2.0395
 1817SOL     OW 5506   1.475   0.035   0.003  0.8452 -0.3237 -0.2722
 1817SOL    HW1 5507   1.522   0.010   0.083  1.6356 -0.3920 -0.7518
 1817SOL    HW2 5508   1.409  -0.034  -0.008  1.6379 -1.0676 -0.4363
 1818SOL     OW 5509   4.530   4.714   4.358  0.3264  0.1115 -0.0464
 1818SOL    HW1 5510   4.564   4.630   4.390  1.8488  0.4563 -0.6718
 1818SOL    HW2 5511   4.530   4.706   4.263  1.0010  0.9906 -0.1383
 1819SOL     OW 5512   4.355   0.218   0.571 -0.0637 -0.3692  0.2716
 1819SOL    HW1 5513   4.403   0.225   0.489 -1.1832 -1.0025 -0.4671
 1819SOL    HW2 5514   4.264   0.204   0.545 -0.4476 -0.5665  1.6182
 1820SOL     OW 5515   3.940   4.033   3.163 -0.0517  0.7648 -0.2050
 1820SOL    HW1 5516   3.940   3.956   3.220 -1.1809  1.4835  0.8104
 1820SOL    HW2 5517   3.974   4.001   3.079 -0.5534 -0.8453  0.1778
 1821SOL     OW 5518   1.309   1.746   4.511  0.0918 -0.1058  0.5368
 1821SOL    HW1 5519   1.356   1.665   4.533  2.1689  0.2750 -2.0356
 1821SOL    HW2 5520   1.231   1.744   4.567  1.2424 -2.6981  2.2491
 1822SOL     OW 5521   2.089   2.743   1.903  0.0478  0.1211 -0.5093
 1822SOL    HW1 5522   2.176   2.749   1.861 -0.1772  0.4553 -0.9363
 1822SOL    HW2 5523   2.095   2.666   1.959  1.3460  1.3426  1.1645
 1823SOL     OW 5524   2.539   4.772   4.138 -0.3086 -0.6048  0.4334
 1823SOL    HW1 5525   2.536   4.860   4.174 -1.4691 -0.2547 -0.4498
 1823SOL    HW2 5526   2.490   4.778   4.056  0.3322 -1.8786 -0.0672
 1824SOL     OW 5527   4.001   1.854   1.653  0.3837 -0.2367  0.5598
 1824SOL    HW1 5528   4.035   1.805   1.728  0.7265  0.2585  0.7311
 1824SOL    HW2 5529   3.906   1.852   1.664  0.3655 -1.1770  0.3671
 1825SOL     OW 5530   3.888   2.611   3.890 -0.0914  0.0694  0.0239
 1825SOL    HW1 5531   3.941   2.591   3.813 -0.7446  1.0608 -0.7114
 1825SOL    HW2 5532   3.941   2.673   3.940 -0.1245  0.2683 -0.1861
 1826SOL     OW 5533   4.095   2.600   1.153 -0.7760  0.2718  0.2331
 1826SOL    HW1 5534   4.125   2.574   1.066  0.5271 -0.0884  0.7611
 1826SOL    HW2 5535   4.170   2.643   1.193 -1.8783  1.9728  0.5899
 1827SOL     OW 5536   4.660   3.293   2.850  0.3557 -0.0162  0.1824
 1827SOL    HW1 5537   4.678   3.229   2.920  0.0368  0.4294  0.6774
 1827SOL    HW2 5538   4.735   3.353   2.853  0.2132  0.1563  0.3219
 1828SOL     OW 5539   2.936   3.906   1.808 -0.6257  0.4397  0.0265
 1828SOL    HW1 5540   3.014   3.853   1.790  0.0410  1.2131  0.5243
 1828SOL    HW2 5541   2.950   3.986   1.758 -0.5421  1.0575  0.9981
 1829SOL     OW 5542   1.772   1.216   3.205 -0.5371  0.1190 -0.0884
 1829SOL    HW1 5543   1.690   1.265   3.208 -1.1056 -0.8534  0.9466
 1829SOL    HW2 5544   1.779   1.186   3.115 -1.2696  0.2915 -0.2086
 1830SOL     OW 5545   0.923   0.192   3.914 -0.3480  0.0461  0.3664
 1830SOL    HW1 5546   0.948   0.183   3.822 -0.0393 -0.3202  0.4817
 1830SOL    HW2 5547   1.007   0.195   3.961 -0.5135 -0.9159  0.7379
 1831SOL     OW 5548   3.293   4.335   3.281  0.2358 -0.2921 -0.2700
 1831SOL    HW1 5549   3.242   4.326   3.361 -0.5320  0.8939 -0.6124
 1831SOL    HW2 5550   3.376   4.374   3.310  0.4225 -0.9249  0.0844
 1832SOL     OW 5551   2.637   3.222   0.275  0.5943  1.0028  0.0159
 1832SOL    HW1 5552   2.595   3.291   0.328  0.9030  0.1007  1.4965
 1832SOL    HW2 5553   2.713   3.196   0.327 -1.1073 -2.5316  1.0429
 1833SOL     OW 5554   4.494   3.709   3.663 -0.0239  0.6529 -0.4040
 1833SOL    HW1 5555   4.521   3.676   3.577  2.0768 -0.4112  0.5806
 1833SOL    HW2 5556   4.559   3.674   3.724 -1.9708  0.5747  1.7891
 1834SOL     OW 5557   0.008   1.093   1.793  0.6060 -0.7247 -0.6103
 1834SOL    HW1 5558  -0.027   1.005   1.782  0.5400 -0.6355 -1.1117
 1834SOL    HW2 5559   0.034   1.097   1.885 -0.5182 -0.8618 -0.2728
 1835SOL     OW 5560   3.100   2.417   3.062 -0.0998  0.0587 -0.3265
 1835SOL    HW1 5561   3.004   2.411   3.057 -0.0979 -0.8175  0.5054
 1835SOL    HW2 5562   3.131   2.329   3.042  0.5279  0.2837 -0.3563
 1836SOL     OW 5563   0.636   2.183   0.136 -0.5684  0.8214 -0.0895
 1836SOL    HW1 5564   0.675   2.123   0.200  0.0502  0.2291 -1.0077
 1836SOL    HW2 5565   0.576   2.237   0.188 -1.4467 -0.8495  0.7234
 1837SOL     OW 5566   2.969   3.416   3.253 -0.1255 -0.4371 -0.3002
 1837SOL    HW1 5567   2.939   3.328   3.228  1.1872 -0.5375 -1.7043
 1837SOL    HW2 5568   3.064   3.412   3.243  0.5018 -0.1418  3.9158
 1838SOL     OW 5569   2.778   0.483   0.008  0.1883  0.0985 -0.6587
 1838SOL    HW1 5570   2.823   0.419   0.062  0.9461  0.9897 -0.2030
 1838SOL    HW2 5571   2.826   0.565   0.022 -1.0001  0.8691 -0.8993
 1839SOL     OW 5572   0.599   4.618   1.808  0.1186 -0.4060 -0.0268
 1839SOL    HW1 5573   0.622   4.594   1.718 -0.4324 -2.1715  0.2471
 1839SOL    HW2 5574   0.503   4.616   1.809  0.0124  2.1009  0.0168
 1840SOL     OW 5575   3.133   2.131   2.606 -0.1555  0.3694 -0.4478
 1840SOL    HW1 5576   3.039   2.139   2.593 -0.6014 -0.1079  2.0001
 1840SOL    HW2 5577   3.144   2.044   2.644  1.1694  0.7590  0.1121
 1841SOL     OW 5578   1.309   2.982   0.800  0.4747 -0.1941  0.6337
 1841SOL    HW1 5579   1.398   2.987   0.834  0.5261  1.8711  0.2966
 1841SOL    HW2 5580   1.266   3.060   0.835 -1.0042 -0.7980  0.2094
 1842SOL     OW 5581   0.671   3.929   3.302  0.0272  0.2364 -0.7800
 1842SOL    HW1 5582   0.735   3.992   3.334 -0.9621  1.5836 -1.3454
 1842SOL    HW2 5583   0.719   3.878   3.236  1.8399 -2.0112  2.0145
 1843SOL     OW 5584   1.671   2.330   4.697 -0.2686 -0.3191  0.2389
 1843SOL    HW1 5585   1.601   2.311   4.635 -0.0580  0.4353 -0.2452
 1843SOL    HW2 5586   1.649   2.279   4.775 -0.2477 -1.7046 -0.6301
 1844SOL     OW 5587   2.540   4.733   4.822 -0.8201 -0.2624  0.1606
 1844SOL    HW1 5588   2.620   4.715   4.773  0.0699  3.3818 -0.0288
 1844SOL    HW2 5589   2.496   4.801   4.771 -0.9860  2.0976  3.1511
 1845SOL     OW 5590   4.075   2.728   1.617  0.2752 -0.5421  0.2348
 1845SOL    HW1 5591   4.091   2.712   1.524  1.1571 -1.1931  0.4801
 1845SOL    HW2 5592   4.036   2.815   1.621  0.7336 -0.2867 -0.7071
 1846SOL     OW 5593   4.432   4.591   0.982  0.2986 -0.3519  0.0820
 1846SOL    HW1 5594   4.479   4.513   0.953  2.1472 -0.1621  2.2265
 1846SOL    HW2 5595   4.416   4.575   1.076 -2.0669  0.5557 -0.1052
 1847SOL     OW 5596   3.503   4.519   2.059 -0.1242 -0.0820  0.1443
 1847SOL    HW1 5597   3.547   4.458   2.000 -1.2069  0.9268 -1.8496
 1847SOL    HW2 5598   3.573   4.567   2.102  0.7724  0.3875 -1.7413
 1848SOL     OW 5599   2.882   2.528   0.332 -0.2633  0.2404  0.1339
 1848SOL    HW1 5600   2.892   2.619   0.304  0.4427  0.0300 -0.3371
 1848SOL    HW2 5601   2.972   2.495   0.338 -0.5477 -0.8587 -1.1520
 1849SOL     OW 5602   1.480   0.215   4.549 -0.0708 -0.0747  0.0003
 1849SOL    HW1 5603   1.391   0.180   4.561 -0.3329  0.4536 -0.3991
 1849SOL    HW2 5604   1.536   0.154   4.597 -0.9784  1.5330  3.3585
 1850SOL     OW 5605   0.606   0.434   4.107  0.0710 -0.4293  0.2835
 1850SOL    HW1 5606   0.602   0.369   4.177 -1.1375  0.6931  1.3018
 1850SOL    HW2 5607   0.517   0.436   4.071  0.5383 -0.5949 -0.9279
 1851SOL     OW 5608   1.780   0.710   3.272 -0.0576 -0.0767  0.4254
 1851SOL    HW1 5609   1.699   0.706   3.221 -0.1209  0.9793  0.4151
 1851SOL    HW2 5610   1.845   0.744   3.211  0.4561 -1.1156  0.3757
 1852SOL     OW 5611   2.047   1.059   0.560 -0.3582 -0.1133 -0.0135
 1852SOL    HW1 5612   2.055   0.970   0.595 -0.2859  0.2889  1.0383
 1852SOL    HW2 5613   2.081   1.115   0.630 -0.7834  0.7729 -0.5001
 1853SOL     OW 5614   2.029   3.803   2.956  0.2379  0.3631  0.2849
 1853SOL    HW1 5615   2.010   3.844   2.871 -1.5123 -1.7468 -0.4526
 1853SOL    HW2 5616   2.122   3.819   2.971  0.4743  1.2087 -1.8095
 1854SOL     OW 5617   1.232   3.073   2.110 -0.6078 -0.2621  0.1772
 1854SOL    HW1 5618   1.209   3.163   2.130  0.4177 -0.1258  0.8391
 1854SOL    HW2 5619   1.176   3.020   2.168 -0.1436  0.0139  0.8980
 1855SOL     OW 5620   2.278   4.646   2.283 -0.1379  0.3253 -0.2194
 1855SOL    HW1 5621   2.187   4.653   2.253 -0.1630  1.5916  0.0983
 1855SOL    HW2 5622   2.329   4.636   2.202 -0.5793 -0.8069 -0.3731
 1856SOL     OW 5623   4.357   3.013   3.762  0.2380 -0.0352 -0.1370
 1856SOL    HW1 5624   4.392   2.942   3.709  1.0662  0.1872  0.0953
 1856SOL    HW2 5625   4.377   3.093   3.712  0.5645  0.1369  0.2678
 1857SOL     OW 5626   1.203   0.601   1.841 -0.0367 -0.1650  0.4990
 1857SOL    HW1 5627   1.206   0.510   1.811 -1.6791 -0.0488 -0.1080
 1857SOL    HW2 5628   1.243   0.651   1.770  2.1320 -0.4758  1.3982
 1858SOL     OW 5629   4.689   4.371   0.929 -0.1426 -0.9018  0.1156
 1858SOL    HW1 5630   4.594   4.356   0.930 -0.2573 -0.2595 -0.5867
 1858SOL    HW2 5631   4.726   4.286   0.903 -0.5107 -1.1683  0.4356
 1859SOL     OW 5632   0.668   3.990   2.418  0.2275 -0.6976  0.0665
 1859SOL    HW1 5633   0.584   3.976   2.463  0.2554 -0.1170  0.3036
 1859SOL    HW2 5634   0.732   3.945   2.473  0.0610 -1.2460 -0.1777
 1860SOL     OW 5635   1.558   1.691   3.069  0.1997  0.3556 -0.9061
 1860SOL    HW1 5636   1.540   1.711   2.977  1.1498 -3.5797 -2.1743
 1860SOL    HW2 5637   1.481   1.643   3.098  0.9040 -0.5471 -0.4771
 1861SOL     OW 5638   1.893   2.914   0.631 -0.0185  0.2060 -0.4108
 1861SOL    HW1 5639   1.959   2.922   0.699 -0.2768 -0.9967  0.0018
 1861SOL    HW2 5640   1.835   2.989   0.645  0.2711  0.3009  0.3129
 1862SOL     OW 5641   0.819   2.007   3.850  0.1276  0.6906 -0.1672
 1862SOL    HW1 5642   0.851   2.065   3.781  0.6191  0.2090 -0.3586
 1862SOL    HW2 5643   0.898   1.981   3.897 -0.0204 -0.1943 -0.3871
 1863SOL     OW 5644   2.683   4.238   3.218 -0.6438  0.4757  0.0158
 1863SOL    HW1 5645   2.688   4.330   3.244  0.3521  0.1926  0.9066
 1863SOL    HW2 5646   2.731   4.192   3.287 -1.4911 -0.7554 -0.1999
 1864SOL     OW 5647   1.701   2.185   0.459 -0.3299 -1.1014 -0.3727
 1864SOL    HW1 5648   1.649   2.204   0.381 -2.6327  0.9567  1.5266
 1864SOL    HW2 5649   1.682   2.257   0.519  1.5484 -2.4625  2.0262
 1865SOL     OW 5650   4.743   3.601   4.641  0.4151 -0.2711 -0.1990
 1865SOL    HW1 5651   4.765   3.692   4.622 -0.1976  0.9347  3.8268
 1865SOL    HW2 5652   4.649   3.594   4.626  0.2008  0.2188  0.8670
 1866SOL     OW 5653   1.962   1.610   0.050 -0.0260  0.4895  0.6756
 1866SOL    HW1 5654   1.934   1.699   0.031  0.5991  0.4507 -0.5115
 1866SOL    HW2 5655   1.949   1.563  -0.032  0.6328 -0.2584  0.9867
 1867SOL     OW 5656   2.519   4.287   3.668  0.2111 -0.0164  0.4022
 1867SOL    HW1 5657   2.483   4.210   3.712 -3.3859  0.3357 -1.5368
 1867SOL    HW2 5658   2.458   4.357   3.690  0.5710  1.0860 -1.8741
 1868SOL     OW 5659   0.992   0.025   3.634  0.1826  0.0057  0.2611
 1868SOL    HW1 5660   0.913  -0.028   3.624 -1.0682  1.9718 -0.6627
 1868SOL    HW2 5661   0.989   0.088   3.562  2.2506  0.5846  0.6090
 1869SOL     OW 5662   0.010   1.443   2.315  0.3658 -0.0683 -0.0006
 1869SOL    HW1 5663   0.015   1.531   2.278  2.0688  0.0190  0.3848
 1869SOL    HW2 5664  -0.006   1.457   2.409  1.1482 -0.1539  0.1464
 1870SOL     OW 5665   2.492   1.788   4.539  0.4649 -0.0630  0.5311
 1870SOL    HW1 5666   2.477   1.831   4.623  0.1514 -0.6353  0.7661
 1870SOL    HW2 5667   2.586   1.769   4.539  0.1176 -2.0525  1.7230
 1871SOL     OW 5668   4.620   2.388   0.867 -0.5532 -0.2360 -0.2879
 1871SOL    HW1 5669   4.611   2.394   0.962 -0.8697 -1.0027 -0.2597
 1871SOL    HW2 5670   4.707   2.350   0.853 -0.8611 -0.9795 -0.2614
 1872SOL     OW 5671   0.343   0.578   4.198 -0.0830  0.2603  0.2202
 1872SOL    HW1 5672   0.268   0.526   4.226 -0.3010  1.0615  1.1571
 1872SOL    HW2 5673   0.317   0.614   4.113 -0.8094  0.6111  0.5788
 1873SOL     OW 5674   0.335   0.773   3.235 -0.2696  0.0522 -0.1395
 1873SOL    HW1 5675   0.380   0.700   3.278 -1.9066 -1.2815 -0.6125
 1873SOL    HW2 5676   0.327   0.746   3.144  0.0637  1.3361 -0.5746
 1874SOL     OW 5677   1.870   2.473   4.553 -0.2534 -0.0308  0.2255
 1874SOL    HW1 5678   1.855   2.489   4.646 -2.2499  1.9745 -0.3424
 1874SOL    HW2 5679   1.913   2.388   4.550 -1.9048 -1.1081  2.8950
 1875SOL     OW 5680   0.474   4.965   1.768  0.7147 -0.0823 -0.5190
 1875SOL    HW1 5681   0.442   4.898   1.708  1.3767 -0.3445 -0.5820
 1875SOL    HW2 5682   0.567   4.972   1.749  0.9309 -0.1555  0.4738
 1876SOL     OW 5683   0.148   4.603   0.958 -0.4275  0.2171  0.0569
 1876SOL    HW1 5684   0.115   4.520   0.924 -2.2600  0.5907  0.7655
 1876SOL    HW2 5685   0.095   4.669   0.913  1.1492  1.0438 -0.6602
 1877SOL     OW 5686   2.812   3.218   2.156 -0.5468  0.1059  0.1553
 1877SOL    HW1 5687   2.870   3.179   2.222 -1.2178  0.0521  0.7351
 1877SOL    HW2 5688   2.864   3.287   2.115 -0.4709  0.8922  1.5193
 1878SOL     OW 5689   2.822   0.302   4.407 -0.0163  0.4515  0.2549
 1878SOL    HW1 5690   2.860   0.389   4.424  1.8400  0.0936 -1.5159
 1878SOL    HW2 5691   2.736   0.321   4.370 -0.1211  1.4979  0.9898
 1879SOL     OW 5692   1.868   2.236   2.650 -0.0294 -0.2845  0.7984
 1879SOL    HW1 5693   1.882   2.237   2.745  1.1379  0.3379  0.6389
 1879SOL    HW2 5694   1.953   2.259   2.613 -0.1373 -1.7391 -0.4484
 1880SOL     OW 5695   3.996   2.610   4.930 -0.6301 -0.1586 -0.3072
 1880SOL    HW1 5696   3.914   2.564   4.910 -0.1004 -1.5452  0.5182
 1880SOL    HW2 5697   4.016   2.660   4.851 -2.5245  0.6372 -0.3474
 1881SOL     OW 5698   0.035   2.725   1.500  0.1464  0.4140  0.0420
 1881SOL    HW1 5699   0.050   2.650   1.558  0.5482 -0.0697 -0.6799
 1881SOL    HW2 5700   0.104   2.788   1.524 -1.5973  1.6339  2.3297
 1882SOL     OW 5701   1.722   3.305   3.518  0.5149  0.8346  0.4389
 1882SOL    HW1 5702   1.628   3.303   3.535  0.5830 -0.3025  0.7638
 1882SOL    HW2 5703   1.749   3.213   3.518  1.3323  1.0271 -1.4065
 1883SOL     OW 5704   2.102   4.882   0.840 -0.0722 -0.1809 -0.2849
 1883SOL    HW1 5705   2.099   4.791   0.811  0.6152  0.1029 -1.2933
 1883SOL    HW2 5706   2.067   4.932   0.767  0.6997  0.4574 -0.2319
 1884SOL     OW 5707   1.707   3.529   4.681 -0.7337 -0.1185 -0.2638
 1884SOL    HW1 5708   1.772   3.470   4.720 -1.5718  0.4274  2.1398
 1884SOL    HW2 5709   1.739   3.545   4.593  0.8945 -2.0784 -0.1063
 1885SOL     OW 5710   3.823   4.404   0.551 -0.3678  0.4825 -0.0008
 1885SOL    HW1 5711   3.885   4.430   0.618 -0.3711  0.6982 -0.0789
 1885SOL    HW2 5712   3.877   4.372   0.479 -0.3342  0.8452 -0.1428
 1886SOL     OW 5713   1.385   4.492   3.528  0.9280  0.0452 -0.2276
 1886SOL    HW1 5714   1.418   4.579   3.549 -1.6415  0.8459  0.8117
 1886SOL    HW2 5715   1.382   4.489   3.432  1.1988  1.0252 -0.2683
 1887SOL     OW 5716   4.741   2.277   2.014  0.0176  0.0316 -0.4841
 1887SOL    HW1 5717   4.794   2.295   2.091  1.2909 -0.4089 -1.2289
 1887SOL    HW2 5718   4.744   2.358   1.963  2.8496 -0.9661 -2.1441
 1888SOL     OW 5719   3.449   1.059   1.043 -0.2668 -0.4995 -0.3097
 1888SOL    HW1 5720   3.448   1.141   1.092  0.8433 -0.3859 -0.4504
 1888SOL    HW2 5721   3.542   1.037   1.035 -0.5429 -3.2287  2.1495
 1889SOL     OW 5722   1.968   1.536   4.041  0.1639  0.1831  0.2262
 1889SOL    HW1 5723   1.946   1.448   4.011 -0.0627  1.0041 -2.2929
 1889SOL    HW2 5724   1.966   1.531   4.136  0.3800 -2.5689  0.1534
 1890SOL     OW 5725   3.278   3.743   4.523  0.7369  0.4392 -0.3440
 1890SOL    HW1 5726   3.302   3.740   4.430  0.8469  0.9174 -0.3331
 1890SOL    HW2 5727   3.186   3.771   4.523  1.1676  1.9063 -0.2565
 1891SOL     OW 5728   3.411   0.898   2.493  0.5057 -0.2491 -0.2812
 1891SOL    HW1 5729   3.367   0.930   2.572 -0.7200 -0.7704 -0.7425
 1891SOL    HW2 5730   3.414   0.803   2.505  1.6048 -0.2181 -0.2184
 1892SOL     OW 5731   0.838   2.172   0.650  0.2759  0.3722  0.3648
 1892SOL    HW1 5732   0.858   2.088   0.610  0.5500 -0.0888  1.4484
 1892SOL    HW2 5733   0.914   2.227   0.631 -0.4819  0.8625 -1.5527
 1893SOL     OW 5734   1.965   4.636   4.573  0.0460  0.0925  0.4344
 1893SOL    HW1 5735   2.044   4.597   4.536 -1.0976 -0.9844 -0.9903
 1893SOL    HW2 5736   1.961   4.602   4.662  1.1275  0.1071  0.5017
 1894SOL     OW 5737   0.227   0.870   2.380  0.3858 -0.2013 -0.0655
 1894SOL    HW1 5738   0.195   0.900   2.295  0.3724 -2.3895 -0.8954
 1894SOL    HW2 5739   0.170   0.913   2.444 -2.0307 -1.2919 -1.3370
 1895SOL     OW 5740   1.817   3.839   2.692  0.1186 -0.2470 -0.2990
 1895SOL    HW1 5741   1.755   3.908   2.668 -0.3343 -0.5723 -0.0502
 1895SOL    HW2 5742   1.903   3.879   2.676 -0.1495  0.1574 -0.7644
 1896SOL     OW 5743   1.426   4.855   3.215 -0.4780  0.3730 -0.0637
 1896SOL    HW1 5744   1.491   4.792   3.248 -1.3361 -0.9133 -0.7701
 1896SOL    HW2 5745   1.450   4.937   3.257  1.1031 -0.2579  0.3480
 1897SOL     OW 5746   3.617   3.336   2.891  0.2047 -0.2490 -0.0106
 1897SOL    HW1 5747   3.571   3.304   2.969 -1.9679 -2.6188 -2.0798
 1897SOL    HW2 5748   3.710   3.320   2.909 -0.4086 -3.0483  1.2157
 1898SOL     OW 5749   1.010   3.344   3.786  0.1324 -0.7733 -0.7019
 1898SOL    HW1 5750   1.000   3.341   3.691 -0.4211  0.6381 -0.7253
 1898SOL    HW2 5751   0.976   3.431   3.810  2.9897  0.1454  0.4502
 1899SOL     OW 5752   3.510   2.484   0.939 -0.1818  0.0818  0.1724
 1899SOL    HW1 5753   3.417   2.503   0.929  0.1998  0.9741 -2.1169
 1899SOL    HW2 5754   3.517   2.445   1.026 -2.5131  1.0486  0.8603
 1900SOL     OW 5755   1.575   0.851   4.207  0.0149  0.3762 -0.4065
 1900SOL    HW1 5756   1.604   0.763   4.183  1.0621  0.0115  1.9224
 1900SOL    HW2 5757   1.655   0.904   4.202  0.6037  0.0282  3.0751
 1901SOL     OW 5758   2.573   4.647   3.797 -0.3623 -0.6738  0.3775
 1901SOL    HW1 5759   2.605   4.568   3.841  0.5317 -0.0574  0.8839
 1901SOL    HW2 5760   2.609   4.642   3.709 -0.2148 -0.7786  0.4436
 1902SOL     OW 5761   4.971   2.324   2.215 -0.6429 -0.5681 -0.1521
 1902SOL    HW1 5762   4.986   2.312   2.308  0.6572  0.0232 -0.2726
 1902SOL    HW2 5763   4.934   2.412   2.207  2.4807  0.8627 -0.4365
 1903SOL     OW 5764   1.895   3.309   4.269 -1.0323  0.4049 -0.0622
 1903SOL    HW1 5765   1.872   3.225   4.309  0.7331 -0.2147 -0.2885
 1903SOL    HW2 5766   1.966   3.343   4.323 -1.3804  1.5266 -0.2786
 1904SOL     OW 5767   1.943   3.598   2.457  0.0470 -0.3141 -0.0961
 1904SOL    HW1 5768   2.004   3.541   2.410  1.4869 -0.1144  1.4397
 1904SOL    HW2 5769   1.885   3.538   2.503 -0.1239 -0.5137 -0.5676
 1905SOL     OW 5770   1.294   2.007   0.572 -0.7560  0.2576  0.4175
 1905SOL    HW1 5771   1.298   2.101   0.589 -0.4452  0.2346  0.4632
 1905SOL    HW2 5772   1.290   1.966   0.659  0.3817  0.1645  0.4390
 1906SOL     OW 5773   1.356   4.812   1.679 -0.2273 -0.0828  0.3604
 1906SOL    HW1 5774   1.271   4.838   1.645  1.1405  2.5892 -1.4085
 1906SOL    HW2 5775   1.391   4.752   1.613 -0.1029  0.1454  0.2141
 1907SOL     OW 5776   2.176   0.354   1.980 -0.2875 -0.2334  0.3021
 1907SOL    HW1 5777   2.123   0.433   1.971 -0.3816 -0.4047 -0.7531
 1907SOL    HW2 5778   2.179   0.338   2.075 -1.4513  0.2291  0.4374
 1908SOL     OW 5779   0.717   4.463   0.412  0.1041 -0.0646 -0.3204
 1908SOL    HW1 5780   0.791   4.523   0.416 -1.0032  1.3453 -0.2363
 1908SOL    HW2 5781   0.655   4.497   0.476 -0.3981 -1.5430  0.0193
 1909SOL     OW 5782   2.012   2.852   0.888  0.1432  0.1203  0.8145
 1909SOL    HW1 5783   1.932   2.803   0.902  1.0906 -1.6989  0.1793
 1909SOL    HW2 5784   2.082   2.794   0.919  1.3785  0.6734 -0.7697
 1910SOL     OW 5785   2.375   3.698   3.966 -0.1411  0.2291  0.0294
 1910SOL    HW1 5786   2.309   3.709   4.035 -0.7895  0.2501 -0.5741
 1910SOL    HW2 5787   2.398   3.606   3.969  1.4080  0.6129  1.6476
 1911SOL     OW 5788   1.287   1.063   2.236  0.3999  0.1456  0.3078
 1911SOL    HW1 5789   1.378   1.037   2.244  0.4621 -0.3532 -1.6007
 1911SOL    HW2 5790   1.237   0.983   2.250  0.4706 -0.5026 -2.6183
 1912SOL     OW 5791   3.410   4.596   3.626 -0.7282  0.2258  0.4543
 1912SOL    HW1 5792   3.436   4.625   3.713  0.2607 -2.2995  1.0799
 1912SOL    HW2 5793   3.492   4.590   3.577 -1.1560  0.5081 -0.3318
 1913SOL     OW 5794   2.199   0.202   1.526  0.5226  0.2165 -0.2272
 1913SOL    HW1 5795   2.127   0.144   1.554  0.9980 -0.1780  0.2167
 1913SOL    HW2 5796   2.161   0.256   1.457 -0.5170  0.7713  0.7482
 1914SOL     OW 5797   4.140   2.570   0.199 -0.2579 -0.3457  0.6855
 1914SOL    HW1 5798   4.071   2.594   0.138 -0.7540 -0.1530  1.3088
 1914SOL    HW2 5799   4.108   2.491   0.242  0.7848 -1.4067 -0.4116
 1915SOL     OW 5800   0.369   3.616   4.997  0.2769  0.2326 -0.0119
 1915SOL    HW1 5801   0.331   3.621   4.909  2.0266  0.7381 -0.7839
 1915SOL    HW2 5802   0.440   3.679   4.995 -0.5402  1.3062  2.2622
 1916SOL     OW 5803   0.359   4.836   3.078 -0.2506  0.0534 -0.4087
 1916SOL    HW1 5804   0.396   4.759   3.123  0.0912  0.4981  0.0830
 1916SOL    HW2 5805   0.419   4.853   3.006 -0.8332 -0.7011 -1.0826
 1917SOL     OW 5806   1.788   2.908   1.498 -0.3301  0.3981 -0.0735
 1917SOL    HW1 5807   1.834   2.866   1.571 -0.1544  0.7146 -0.0007
 1917SOL    HW2 5808   1.814   3.000   1.503 -0.3066  0.4207 -0.5406
 1918SOL     OW 5809   1.191   2.848   4.673  0.4403  0.3174  0.9670
 1918SOL    HW1 5810   1.106   2.818   4.705  0.1847  0.8000  0.7417
 1918SOL    HW2 5811   1.249   2.838   4.748  0.4795 -1.2003  0.7704
 1919SOL     OW 5812   3.043   0.983   4.262  0.1104 -0.4821 -0.1904
 1919SOL    HW1 5813   3.038   0.924   4.338  1.5981 -1.0976 -0.5194
 1919SOL    HW2 5814   3.049   1.070   4.300  0.9322 -0.7913  0.4370
 1920SOL     OW 5815   4.557   4.641   0.338 -0.4767  0.1823 -0.1774
 1920SOL    HW1 5816   4.592   4.566   0.386  1.1775  1.3554  0.5351
 1920SOL    HW2 5817   4.496   4.603   0.275  0.8979 -1.8352 -0.3814
 1921SOL     OW 5818   0.633   2.651   2.991 -0.2360 -0.1135 -0.4963
 1921SOL    HW1 5819   0.659   2.585   3.055  0.6070  0.0918 -0.6081
 1921SOL    HW2 5820   0.713   2.666   2.940 -0.4737  0.8381 -0.5967
 1922SOL     OW 5821   2.190   3.156   1.490  0.0502  0.7098  0.1673
 1922SOL    HW1 5822   2.271   3.113   1.461  1.3381  2.5092  0.9533
 1922SOL    HW2 5823   2.185   3.136   1.584 -1.1589 -0.4730 -0.1127
 1923SOL     OW 5824   2.954   0.129   1.492 -0.6146 -0.1591 -0.1587
 1923SOL    HW1 5825   2.879   0.168   1.537 -0.4562 -0.9558  0.8380
 1923SOL    HW2 5826   3.022   0.125   1.559  0.2928  0.4640 -1.0285
 1924SOL     OW 5827   4.320   4.146   1.712 -0.1803 -0.2455  0.3500
 1924SOL    HW1 5828   4.354   4.209   1.649 -1.5009  0.1736  0.0106
 1924SOL    HW2 5829   4.352   4.061   1.681  1.0380  0.1737  0.4193
 1925SOL     OW 5830   3.607   2.883   3.692 -0.0636 -0.1506  0.4536
 1925SOL    HW1 5831   3.584   2.811   3.633 -0.3963  0.9614 -0.8258
 1925SOL    HW2 5832   3.632   2.840   3.774  1.5467 -1.8080 -0.8365
 1926SOL     OW 5833   1.988   1.808   4.433  0.1245  0.0978  0.2719
 1926SOL    HW1 5834   1.931   1.885   4.431 -1.3170 -0.9255  0.3107
 1926SOL    HW2 5835   2.025   1.809   4.521  1.0317  1.3655 -0.1014
 1927SOL     OW 5836   1.638   1.065   2.675  0.0952 -0.3735  0.3254
 1927SOL    HW1 5837   1.702   0.995   2.661 -0.1086 -0.5072  0.0459
 1927SOL    HW2 5838   1.643   1.118   2.596 -0.5714 -0.7346  0.0359
 1928SOL     OW 5839   0.923   3.466   1.834 -0.3446 -0.7552 -0.5653
 1928SOL    HW1 5840   0.921   3.453   1.929  1.6675 -1.5920 -0.5971
 1928SOL    HW2 5841   0.967   3.550   1.822 -0.9596 -0.4534 -0.7659
 1929SOL     OW 5842   0.932   2.053   1.359  0.1698  0.1350  0.1498
 1929SOL    HW1 5843   0.992   1.994   1.405  0.9831 -0.0889 -1.1489
 1929SOL    HW2 5844   0.846   2.029   1.392  0.8229  1.8992  3.7049
 1930SOL     OW 5845   2.462   1.969   4.764 -0.1138  1.1302  0.2477
 1930SOL    HW1 5846   2.455   2.000   4.854  3.0630  1.3100  0.5715
 1930SOL    HW2 5847   2.518   2.034   4.721  0.2508 -0.0874 -1.2201
 1931SOL     OW 5848   3.159   2.872   1.309 -0.3254  0.0272  0.1412
 1931SOL    HW1 5849   3.228   2.912   1.256 -0.6379  0.6229  0.1785
 1931SOL    HW2 5850   3.177   2.901   1.398  0.5966 -1.5197  0.5012
 1932SOL     OW 5851   4.648   3.458   2.147 -0.4906 -0.5415 -0.4555
 1932SOL    HW1 5852   4.622   3.509   2.223  0.0805  1.8058 -1.7325
 1932SOL    HW2 5853   4.599   3.376   2.154 -2.3038  0.6067  1.1378
 1933SOL     OW 5854   4.389   1.734   4.441 -0.2069  0.0051 -0.3886
 1933SOL    HW1 5855   4.448   1.730   4.365 -0.1407 -2.1940 -0.2767
 1933SOL    HW2 5856   4.302   1.747   4.403 -0.1967 -1.2686 -0.8833
 1934SOL     OW 5857   4.499   1.747   0.928  0.5455  0.2113  0.1752
 1934SOL    HW1 5858   4.446   1.667   0.932  1.1083 -0.1446  0.7486
 1934SOL    HW2 5859   4.512   1.772   1.020  1.0213  0.5250  0.0278
 1935SOL     OW 5860   4.106   1.990   0.346  0.0755  0.2462  0.1920
 1935SOL    HW1 5861   4.039   1.921   0.349 -1.3221  1.4285 -1.8307
 1935SOL    HW2 5862   4.122   2.011   0.438 -0.3816 -1.8603  0.8208
 1936SOL     OW 5863   4.400   2.573   3.425 -0.4610  0.4271  0.0073
 1936SOL    HW1 5864   4.474   2.526   3.463  0.7803  0.8143 -1.8246
 1936SOL    HW2 5865   4.341   2.504   3.395 -1.9021  0.0788  3.1589
 1937SOL     OW 5866   0.642   2.332   3.222 -1.0195  0.0779 -0.0484
 1937SOL    HW1 5867   0.623   2.337   3.128 -1.2693  1.7262  0.0553
 1937SOL    HW2 5868   0.689   2.414   3.241 -0.4266 -0.5139  1.1510
 1938SOL     OW 5869   2.440   4.299   1.555 -0.4541  0.2512 -0.1053
 1938SOL    HW1 5870   2.353   4.269   1.581  0.2231 -3.8016 -1.7355
 1938SOL    HW2 5871   2.497   4.270   1.627 -0.0475 -0.2132 -0.6085
 1939SOL     OW 5872   3.272   4.302   1.805 -0.1880 -0.2256  0.1820
 1939SOL    HW1 5873   3.196   4.313   1.862 -1.4394 -1.6478 -1.0977
 1939SOL    HW2 5874   3.234   4.273   1.721  1.6864  0.2087 -0.8729
 1940SOL     OW 5875   1.503   0.799   1.425 -0.0833  0.2781  0.2413
 1940SOL    HW1 5876   1.598   0.805   1.434 -0.1665  1.4614  0.5393
 1940SOL    HW2 5877   1.478   0.877   1.376 -0.9105  0.0122  0.2104
 1941SOL     OW 5878   3.542   2.736   0.805 -0.6495  0.6894  0.0359
 1941SOL    HW1 5879   3.575   2.695   0.724  1.2197 -0.1363  1.1436
 1941SOL    HW2 5880   3.556   2.670   0.872 -2.7898  1.1179  0.9728
 1942SOL     OW 5881   2.083   2.815   1.256  0.1247  0.6536 -0.5959
 1942SOL    HW1 5882   1.996   2.791   1.225 -0.1081  0.1645  0.3932
 1942SOL    HW2 5883   2.075   2.906   1.281 -0.9997 -0.1506  2.3742
 1943SOL     OW 5884   4.436   1.008   1.182 -0.3424  0.4270 -0.2575
 1943SOL    HW1 5885   4.349   1.012   1.142  0.0159  0.7197 -1.0245
 1943SOL    HW2 5886   4.484   0.943   1.130 -1.0158 -2.1467  2.0476
 1944SOL     OW 5887   2.499   0.773   0.532  0.2678 -0.0270 -0.4775
 1944SOL    HW1 5888   2.439   0.820   0.474  0.5355 -0.6071 -1.2497
 1944SOL    HW2 5889   2.572   0.833   0.545 -0.3988  0.6231  0.3448
 1945SOL     OW 5890   4.424   2.571   0.171  0.4093  0.0031 -0.2825
 1945SOL    HW1 5891   4.331   2.547   0.178  0.3900  0.3004  0.6801
 1945SOL    HW2 5892   4.423   2.663   0.145  0.4086  0.3381  0.8673
 1946SOL     OW 5893   1.327   1.948   1.080  0.0111 -0.4821 -0.5569
 1946SOL    HW1 5894   1.367   2.028   1.114 -0.0687 -0.8488  0.4432
 1946SOL    HW2 5895   1.270   1.918   1.151 -1.4410 -0.4074 -1.6542
 1947SOL     OW 5896   0.918   0.241   0.365  0.2455 -0.2394 -0.1231
 1947SOL    HW1 5897   0.946   0.252   0.456 -0.2293  0.8606 -0.0919
 1947SOL    HW2 5898   0.884   0.152   0.361  2.4452 -1.1565  0.1631
 1948SOL     OW 5899   3.376   3.954   1.320 -0.7346  0.1881  0.0092
 1948SOL    HW1 5900   3.346   4.000   1.398 -1.7565  1.2428 -0.9694
 1948SOL    HW2 5901   3.449   4.007   1.287 -1.2860  0.6127 -0.5728
 1949SOL     OW 5902   4.129   2.591   2.878 -0.5966  0.1053  0.6017
 1949SOL    HW1 5903   4.196   2.613   2.943  1.0019 -1.7653 -0.3363
 1949SOL    HW2 5904   4.133   2.662   2.814 -0.2912  0.5525  1.1094
 1950SOL     OW 5905   1.910   0.662   4.794  0.0595  0.2070 -0.4626
 1950SOL    HW1 5906   1.878   0.696   4.877 -0.1301 -1.3943  0.1446
 1950SOL    HW2 5907   1.887   0.569   4.795  1.2194 -0.1277 -1.7254
 1951SOL     OW 5908   0.437   4.623   3.223  0.1160 -0.4588  0.4050
 1951SOL    HW1 5909   0.429   4.539   3.177 -1.7273 -0.2048  0.1799
 1951SOL    HW2 5910   0.387   4.610   3.304 -0.2205  0.4286  0.3463
 1952SOL     OW 5911   2.547   1.880   0.833 -0.3800  0.3843  0.1581
 1952SOL    HW1 5912   2.621   1.869   0.773 -1.4270 -0.4432 -1.0446
 1952SOL    HW2 5913   2.514   1.791   0.847  0.3699  0.4360  2.7294
 1953SOL     OW 5914   2.934   4.696   1.598  0.2580 -0.1868 -0.1913
 1953SOL    HW1 5915   2.915   4.778   1.553 -0.5373 -0.9724 -1.3631
 1953SOL    HW2 5916   2.867   4.690   1.666  0.8930  0.5570  0.5286
 1954SOL     OW 5917   2.308   3.960   0.074  0.1175 -0.1128 -0.9961
 1954SOL    HW1 5918   2.243   3.945   0.005 -2.2321  1.2041  0.7514
 1954SOL    HW2 5919   2.341   4.048   0.058 -1.4878  0.7778  0.2271
 1955SOL     OW 5920   0.805   2.482   1.225 -0.1427 -0.2364  0.2208
 1955SOL    HW1 5921   0.861   2.560   1.227 -0.6852  0.1475  0.4703
 1955SOL    HW2 5922   0.723   2.512   1.187 -0.9607 -0.2715  1.8764
 1956SOL     OW 5923   2.554   0.532   2.658  0.1375 -0.0094 -0.1530
 1956SOL    HW1 5924   2.625   0.477   2.690 -0.5039 -1.6662 -1.4290
 1956SOL    HW2 5925   2.488   0.527   2.727  0.0603 -0.9303 -0.2749
 1957SOL     OW 5926   2.329   4.288   2.822 -0.5358  0.0869 -0.6451
 1957SOL    HW1 5927   2.410   4.315   2.779 -0.4365  0.5139 -0.2015
 1957SOL    HW2 5928   2.261   4.343   2.783 -0.6468 -0.3953 -1.1458
 1958SOL     OW 5929   2.377   3.557   0.140  0.3064  0.4429  0.3592
 1958SOL    HW1 5930   2.356   3.586   0.052 -1.5885  0.6210  0.8056
 1958SOL    HW2 5931   2.431   3.626   0.177  1.4251  0.1955 -0.7468
 1959SOL     OW 5932   0.364   4.973   0.718  0.4350 -0.7801  0.2730
 1959SOL    HW1 5933   0.329   4.887   0.739 -1.2720 -0.2697 -0.2495
 1959SOL    HW2 5934   0.404   4.963   0.632  2.1102 -1.5013  1.1052
 1960SOL     OW 5935   2.038   2.685   1.486 -0.0867  0.0516  1.3469
 1960SOL    HW1 5936   2.056   2.739   1.409  1.5604 -0.1630  1.5564
 1960SOL    HW2 5937   1.991   2.743   1.545  0.3666  0.8099  0.9762
 1961SOL     OW 5938   1.397   2.228   1.047  0.5372 -0.1453 -0.2628
 1961SOL    HW1 5939   1.336   2.234   0.973 -0.1963  0.8505  0.4034
 1961SOL    HW2 5940   1.475   2.185   1.010 -0.2138 -0.6259 -1.3456
 1962SOL     OW 5941   0.295   0.626   2.490  0.3921 -0.2117 -0.3857
 1962SOL    HW1 5942   0.284   0.711   2.447  0.1935 -0.3286 -0.5732
 1962SOL    HW2 5943   0.212   0.580   2.472  1.5321 -1.5388 -2.7573
 1963SOL     OW 5944   1.131   4.439   3.627  0.0194 -0.1540 -0.3728
 1963SOL    HW1 5945   1.058   4.494   3.600  0.0576 -0.5227 -1.2438
 1963SOL    HW2 5946   1.206   4.470   3.576 -0.0219 -1.1860 -1.0900
 1964SOL     OW 5947   0.971   2.200   4.778  0.1207 -0.1324 -0.3924
 1964SOL    HW1 5948   0.898   2.192   4.716 -1.1326  0.3424  0.9617
 1964SOL    HW2 5949   1.046   2.226   4.724 -0.8580 -0.0126 -1.7400
 1965SOL     OW 5950   4.525   4.432   3.334 -0.0575 -0.3772  1.1696
 1965SOL    HW1 5951   4.558   4.522   3.334  0.4154 -0.5429  0.8684
 1965SOL    HW2 5952   4.601   4.379   3.311 -0.7563 -0.6857 -0.5922
 1966SOL     OW 5953   3.340   4.274   0.667  0.1393 -0.3570  0.0919
 1966SOL    HW1 5954   3.344   4.198   0.724  0.2894 -0.0340  0.5153
 1966SOL    HW2 5955   3.420   4.268   0.614 -0.7694 -1.5203 -1.2107
 1967SOL     OW 5956   2.301   4.526   2.517  0.2619 -0.0631  0.3383
 1967SOL    HW1 5957   2.289   4.569   2.432  0.9828 -0.1485  0.1879
 1967SOL    HW2 5958   2.212   4.513   2.550 -0.0097  0.2963 -0.2417
 1968SOL     OW 5959   1.914   4.513   1.864  0.1860 -0.7981  0.1770
 1968SOL    HW1 5960   1.996   4.489   1.821  0.0412  0.0136 -0.5763
 1968SOL    HW2 5961   1.847   4.464   1.816 -0.0532  0.6623 -1.0215
 1969SOL     OW 5962   4.370   3.800   1.744  0.1206 -0.1150 -0.5445
 1969SOL    HW1 5963   4.455   3.764   1.768  0.9064  1.5331 -0.7177
 1969SOL    HW2 5964   4.369   3.797   1.648 -0.0527 -0.2141 -0.5399
 1970SOL     OW 5965   2.936   4.511   2.530 -0.2993  0.3688 -0.1224
 1970SOL    HW1 5966   3.007   4.457   2.494  0.6821  1.3989  0.1940
 1970SOL    HW2 5967   2.913   4.469   2.612  0.2700  0.2674 -0.0091
 1971SOL     OW 5968   4.992   2.721   0.242 -0.1712  0.0363  0.3871
 1971SOL    HW1 5969   4.937   2.796   0.265  0.7603  0.8633 -0.0157
 1971SOL    HW2 5970   4.931   2.647   0.241 -2.0234  1.3567 -3.0958
 1972SOL     OW 5971   3.495   4.792   0.516 -0.3809  0.0072 -0.0887
 1972SOL    HW1 5972   3.526   4.769   0.603 -0.2526 -1.1607 -0.4221
 1972SOL    HW2 5973   3.574   4.797   0.462 -0.4494  0.8268 -0.1278
 1973SOL     OW 5974   3.873   2.702   0.823 -0.0430 -0.1793  0.4248
 1973SOL    HW1 5975   3.813   2.636   0.789 -1.0883  1.5832 -1.3479
 1973SOL    HW2 5976   3.954   2.691   0.773  0.5470 -1.3924  1.5758
 1974SOL     OW 5977   1.150   0.804   2.224 -0.9916  0.0983 -0.1604
 1974SOL    HW1 5978   1.060   0.817   2.254 -1.8324 -1.9852 -1.5625
 1974SOL    HW2 5979   1.147   0.722   2.174  1.5787  0.2717 -0.7249
 1975SOL     OW 5980   4.517   3.609   3.383  0.6134  0.1660 -0.0539
 1975SOL    HW1 5981   4.428   3.636   3.359  0.4892  0.0355  0.2586
 1975SOL    HW2 5982   4.572   3.645   3.314  0.1852 -0.7841 -0.9129
 1976SOL     OW 5983   1.000   2.573   1.603 -0.5551 -0.1967 -0.4118
 1976SOL    HW1 5984   1.008   2.663   1.635 -2.1943  0.0897 -0.7455
 1976SOL    HW2 5985   1.005   2.581   1.508 -2.6611 -0.1948 -0.5534
 1977SOL     OW 5986   3.982   4.726   1.554 -0.3012 -0.3358 -0.2837
 1977SOL    HW1 5987   4.012   4.642   1.520 -0.2742  0.0387 -1.2192
 1977SOL    HW2 5988   3.891   4.712   1.577  0.1202 -1.0321  1.0170
 1978SOL     OW 5989   0.578   0.930   4.597  0.5119  0.0312  0.5215
 1978SOL    HW1 5990   0.652   0.947   4.538  0.7436  0.0415  0.8127
 1978SOL    HW2 5991   0.580   0.835   4.612 -1.3718 -0.4962 -1.8866
 1979SOL     OW 5992   4.424   4.818   2.130  0.8070  0.1457  0.7043
 1979SOL    HW1 5993   4.408   4.850   2.041  1.7351 -0.3046  0.3671
 1979SOL    HW2 5994   4.336   4.803   2.166  0.4249 -1.1863 -0.6877
 1980SOL     OW 5995   0.957   1.389   0.325  0.4935  0.2778 -0.2575
 1980SOL    HW1 5996   0.977   1.328   0.254  1.5845 -0.2852  0.4949
 1980SOL    HW2 5997   0.894   1.451   0.288  0.2827 -0.5992 -1.3971
 1981SOL     OW 5998   4.020   1.305   4.817 -0.0108  0.0218  0.1791
 1981SOL    HW1 5999   4.057   1.264   4.738  0.1755  0.6413 -0.0564
 1981SOL    HW2 6000   4.060   1.391   4.821  2.0434 -0.9284  2.4351
 1982SOL     OW 6001   3.751   3.725   3.780  0.3923  0.0404 -0.2675
 1982SOL    HW1 6002   3.718   3.673   3.854 -0.0686  0.8307  0.0944
 1982SOL    HW2 6003   3.805   3.664   3.730  0.4327 -0.6005  0.5361
 1983SOL     OW 6004   3.679   0.582   1.505  0.6602 -0.2873 -0.4193
 1983SOL    HW1 6005   3.618   0.636   1.557 -2.0475 -3.1951 -0.2407
 1983SOL    HW2 6006   3.734   0.539   1.570  1.3761  0.5873 -0.4273
 1984SOL     OW 6007   4.597   2.850   0.911  0.5763  0.0992  0.0168
 1984SOL    HW1 6008   4.594   2.841   0.816  0.3959  1.5497 -0.1346
 1984SOL    HW2 6009   4.685   2.882   0.930  0.6672 -0.3397  0.3623
 1985SOL     OW 6010   1.366   4.761   4.891  0.0607 -0.7028 -0.3128
 1985SOL    HW1 6011   1.456   4.739   4.918  0.4977  1.3487  0.1023
 1985SOL    HW2 6012   1.368   4.757   4.796  1.4230  1.9404 -0.4870
 1986SOL     OW 6013   3.377   1.723   0.534  0.2989  0.3229  0.2951
 1986SOL    HW1 6014   3.406   1.659   0.469 -0.4376 -3.3061  3.1689
 1986SOL    HW2 6015   3.458   1.751   0.578  0.5443  0.6764 -0.3707
 1987SOL     OW 6016   3.060   2.261   1.429  0.3718 -0.3061 -0.2456
 1987SOL    HW1 6017   3.101   2.231   1.510 -1.0754 -0.8811  0.3031
 1987SOL    HW2 6018   3.131   2.300   1.379  1.1689  0.8053  1.6465
 1988SOL     OW 6019   1.407   3.427   3.799 -0.0042  0.0867  0.3878
 1988SOL    HW1 6020   1.410   3.334   3.821  0.7820  0.1610  0.6373
 1988SOL    HW2 6021   1.452   3.470   3.872  1.2060  0.4960 -0.5782
 1989SOL     OW 6022   1.748   0.383   0.503 -0.1212 -0.5165  0.1971
 1989SOL    HW1 6023   1.816   0.445   0.475  1.9034 -2.3436  0.8340
 1989SOL    HW2 6024   1.692   0.374   0.427  0.6633  0.6378 -0.5562
 1990SOL     OW 6025   4.223   0.340   0.909 -0.0754 -0.3269  0.1681
 1990SOL    HW1 6026   4.238   0.246   0.908 -0.9802 -0.4787  0.0840
 1990SOL    HW2 6027   4.181   0.358   0.825 -1.1594 -0.0680  0.7597
 1991SOL     OW 6028   3.822   3.881   0.913  0.7178 -0.2260  0.0823
 1991SOL    HW1 6029   3.824   3.958   0.855 -1.2311  1.7962  2.4740
 1991SOL    HW2 6030   3.755   3.824   0.874  0.3300  0.5086 -0.3571
 1992SOL     OW 6031   1.934   0.483   3.798  0.3537  0.0392  0.3371
 1992SOL    HW1 6032   1.883   0.426   3.741 -1.3454  1.4659  0.3573
 1992SOL    HW2 6033   2.019   0.440   3.805  0.1213 -0.9431 -2.0356
 1993SOL     OW 6034   3.798   1.176   3.973  0.1876  0.0613 -0.6206
 1993SOL    HW1 6035   3.788   1.119   3.897 -1.5472 -1.4538  0.6413
 1993SOL    HW2 6036   3.730   1.243   3.962 -0.1561 -0.2386 -0.3726
 1994SOL     OW 6037   1.264   4.884   3.565  0.2003 -0.0016  0.2855
 1994SOL    HW1 6038   1.231   4.841   3.486 -0.8106 -0.3262  0.8667
 1994SOL    HW2 6039   1.211   4.963   3.574  0.7815  0.3971  0.2653
 1995SOL     OW 6040   4.698   4.155   3.534  0.1862  0.2711 -0.0465
 1995SOL    HW1 6041   4.682   4.181   3.625 -1.8379  3.3089 -1.0791
 1995SOL    HW2 6042   4.622   4.102   3.510  0.1382  0.4390 -0.2701
 1996SOL     OW 6043   2.502   1.000   1.017 -0.1622 -0.1474  0.0884
 1996SOL    HW1 6044   2.494   0.913   1.056 -1.2339 -1.6225 -3.0669
 1996SOL    HW2 6045   2.463   1.059   1.082 -0.0878 -2.0897  2.0135
 1997SOL     OW 6046   1.402   3.171   3.907 -0.1146 -0.2479 -0.4488
 1997SOL    HW1 6047   1.348   3.104   3.865  0.5814  0.2535 -2.1994
 1997SOL    HW2 6048   1.483   3.125   3.931 -0.3795 -0.4546  0.0706
 1998SOL     OW 6049   4.784   0.306   4.369 -0.8286 -0.2093  0.3252
 1998SOL    HW1 6050   4.704   0.254   4.360 -1.5259  0.8900  0.0459
 1998SOL    HW2 6051   4.785   0.334   4.461  0.2285 -1.7369  0.8378
 1999SOL     OW 6052   1.990   1.091   1.983 -0.0291  1.0304  0.5290
 1999SOL    HW1 6053   1.987   1.162   2.047 -2.1874 -0.5503  2.3264
 1999SOL    HW2 6054   2.071   1.106   1.935  1.0965  2.9861  2.8216
 2000SOL     OW 6055  -0.019   3.781   1.552 -0.1675 -0.5876 -0.1115
 2000SOL    HW1 6056   0.034   3.808   1.627 -2.4429  1.5164  0.9213
 2000SOL    HW2 6057   0.038   3.791   1.477  1.1011  0.9810  0.9969
 2001SOL     OW 6058   4.330   1.377   2.735 -0.0518 -0.2227  0.5590
 2001SOL    HW1 6059   4.312   1.427   2.815  0.7251 -1.2560  1.4103
 2001SOL    HW2 6060   4.400   1.316   2.760  0.5116 -0.2701 -1.0414
 2002SOL     OW 6061   2.940   1.623   4.906 -0.2979 -0.1438 -0.2982
 2002SOL    HW1 6062   2.995   1.699   4.889 -1.2917  0.5720 -0.3600
 2002SOL    HW2 6063   2.853   1.658   4.920 -1.0119 -1.3367 -1.4403
 2003SOL     OW 6064   2.452   4.100   1.985 -0.0230 -0.3476 -0.0990
 2003SOL    HW1 6065   2.427   4.009   2.002 -4.0390  0.3252 -1.3072
 2003SOL    HW2 6066   2.428   4.147   2.066 -0.7154  0.0130 -0.5013
 2004SOL     OW 6067   4.819   4.449   3.716  0.3136  0.0383  0.4793
 2004SOL    HW1 6068   4.909   4.460   3.746 -0.6590  3.1584  2.6552
 2004SOL    HW2 6069   4.766   4.450   3.795 -1.8928  1.8687 -0.8977
 2005SOL     OW 6070   4.914   2.751   3.364  0.0539 -0.5061  0.0402
 2005SOL    HW1 6071   4.968   2.830   3.371  1.6134 -1.2940 -2.0470
 2005SOL    HW2 6072   4.976   2.679   3.373 -1.4083 -1.5801  2.3761
 2006SOL     OW 6073   0.563   3.279   4.772 -0.2463 -0.0411  0.6126
 2006SOL    HW1 6074   0.555   3.347   4.839 -2.1310  1.1279 -0.6883
 2006SOL    HW2 6075   0.592   3.325   4.694 -1.6222 -0.6591 -0.3129
 2007SOL     OW 6076   4.282   4.354   1.437 -0.0373  0.2778  0.7688
 2007SOL    HW1 6077   4.189   4.371   1.428 -0.6020 -2.4844  0.5066
 2007SOL    HW2 6078   4.308   4.400   1.517 -1.4209  1.6538  0.4771
 2008SOL     OW 6079   0.986   0.978   2.500 -0.2621  0.0829 -0.5256
 2008SOL    HW1 6080   0.966   0.899   2.451  0.1776 -0.2643 -0.1571
 2008SOL    HW2 6081   1.028   0.947   2.580  1.1708  0.7394 -0.9892
 2009SOL     OW 6082   4.614   2.080   1.319 -0.0379 -0.4320  0.0394
 2009SOL    HW1 6083   4.631   2.005   1.377 -1.3164 -0.2035  0.7400
 2009SOL    HW2 6084   4.529   2.062   1.281  0.5383 -0.2859 -1.3585
 2010SOL     OW 6085   3.550   4.934   3.684  0.1513  0.2084  0.1103
 2010SOL    HW1 6086   3.532   4.944   3.591  0.1325  1.5519  0.2367
 2010SOL    HW2 6087   3.464   4.939   3.726  0.1671 -0.3134  0.2136
 2011SOL     OW 6088   0.708   1.780   2.293 -0.0193  0.1289  0.1648
 2011SOL    HW1 6089   0.695   1.766   2.199 -0.3859  0.2030  0.2034
 2011SOL    HW2 6090   0.768   1.710   2.319 -3.1091 -2.5903  0.6875
 2012SOL     OW 6091   2.237   1.935   2.033 -0.3543  0.3512 -0.4263
 2012SOL    HW1 6092   2.325   1.936   1.997  0.5991  1.1141  1.7495
 2012SOL    HW2 6093   2.195   2.012   1.996 -0.4437 -0.4781 -2.1407
 2013SOL     OW 6094   2.719   1.135   2.229 -0.0370 -0.1181 -0.3199
 2013SOL    HW1 6095   2.690   1.051   2.263 -2.3798  0.5419 -0.5191
 2013SOL    HW2 6096   2.707   1.196   2.302 -1.0999  0.5459 -1.0268
 2014SOL     OW 6097   4.458   2.406   1.378 -0.2197  0.4020  0.0061
 2014SOL    HW1 6098   4.449   2.359   1.461  1.6000  1.0548  0.6387
 2014SOL    HW2 6099   4.441   2.497   1.400 -1.7894  0.3366 -0.8084
 2015SOL     OW 6100   4.195   4.607   1.171  0.1099  0.0108  0.4509
 2015SOL    HW1 6101   4.144   4.644   1.243  0.2952 -0.5048  0.8549
 2015SOL    HW2 6102   4.274   4.660   1.168  0.8142 -0.9147  1.6556
 2016SOL     OW 6103   1.234   4.313   1.787  0.2552 -0.1216  0.7432
 2016SOL    HW1 6104   1.311   4.369   1.793 -1.2592  2.1200  0.4213
 2016SOL    HW2 6105   1.208   4.318   1.695 -0.2310 -0.9257  0.8282
 2017SOL     OW 6106   4.550   4.899   0.426  0.4397 -0.1424 -0.6119
 2017SOL    HW1 6107   4.554   4.813   0.384 -1.1615 -0.5250 -0.0376
 2017SOL    HW2 6108   4.523   4.958   0.356  0.6944 -0.2482 -0.8041
 2018SOL     OW 6109   4.244   1.094   3.809  0.2001  0.0356 -0.3836
 2018SOL    HW1 6110   4.300   1.044   3.868 -1.1851  0.3297  1.2581
 2018SOL    HW2 6111   4.203   1.160   3.865 -2.0293 -0.3840 -1.4175
 2019SOL     OW 6112   1.985   1.867   2.411 -0.0496 -0.3207  0.4043
 2019SOL    HW1 6113   2.003   1.778   2.439 -0.3923  0.2948  2.7567
 2019SOL    HW2 6114   2.072   1.905   2.394  0.1237 -0.8988 -0.0264
 2020SOL     OW 6115   2.983   3.849   0.513  0.5709 -0.2813 -0.3944
 2020SOL    HW1 6116   2.909   3.831   0.571  0.5275  0.2364 -0.2870
 2020SOL    HW2 6117   2.951   3.917   0.454  1.3553  0.8206  0.4291
 2021SOL     OW 6118   4.638   2.435   2.679  0.0735  0.4709 -0.5778
 2021SOL    HW1 6119   4.570   2.370   2.697 -0.1123  0.3494 -1.6045
 2021SOL    HW2 6120   4.616   2.510   2.734 -0.6410  0.2611 -0.5727
 2022SOL     OW 6121   0.194   0.862   3.458 -0.2111 -0.0622  0.0101
 2022SOL    HW1 6122   0.232   0.817   3.382 -0.5550  0.3942 -0.4428
 2022SOL    HW2 6123   0.117   0.907   3.422 -0.3382  0.2077  0.6189
 2023SOL     OW 6124   3.400   0.260   1.595  0.0574 -0.2100  0.2926
 2023SOL    HW1 6125   3.479   0.214   1.620  0.6767  1.1574  0.9364
 2023SOL    HW2 6126   3.385   0.234   1.504  1.4015 -0.2770  0.0723
 2024SOL     OW 6127   2.782   1.166   4.567  0.8007 -0.3899 -0.1460
 2024SOL    HW1 6128   2.782   1.082   4.612 -1.0316  0.0709  0.8466
 2024SOL    HW2 6129   2.812   1.228   4.634  2.7290 -0.2817 -1.0463
 2025SOL     OW 6130   2.580   3.401   0.720  0.4110 -0.7035 -0.7579
 2025SOL    HW1 6131   2.499   3.397   0.772  0.2623 -1.4293 -1.0321
 2025SOL    HW2 6132   2.595   3.310   0.694  0.3593 -0.3181 -2.1857
 2026SOL     OW 6133   1.986   1.994   1.190 -0.2010  0.2214  0.4713
 2026SOL    HW1 6134   1.996   2.078   1.146 -0.2114 -0.2788 -0.5187
 2026SOL    HW2 6135   1.936   1.941   1.128  1.3494 -1.0854  0.2771
 2027SOL     OW 6136   4.159   2.084   0.597  0.3596  0.0208 -0.2490
 2027SOL    HW1 6137   4.214   2.161   0.582  1.7420 -1.0498 -0.8718
 2027SOL    HW2 6138   4.197   2.043   0.674  0.4700 -0.7516 -0.7101
 2028SOL     OW 6139   1.191   2.514   1.765  0.3214  0.3262 -0.2698
 2028SOL    HW1 6140   1.219   2.422   1.760 -0.9716 -0.1462  0.5872
 2028SOL    HW2 6141   1.125   2.522   1.697 -1.0721  0.0168  0.9892
 2029SOL     OW 6142   4.230   3.303   0.187  0.0896  0.4948  0.1208
 2029SOL    HW1 6143   4.307   3.326   0.239  0.9830 -0.9318 -0.5229
 2029SOL    HW2 6144   4.183   3.386   0.176  2.0286  1.5833 -0.2924
 2030SOL     OW 6145   2.964   0.263   4.858 -0.3919  0.1252 -0.3738
 2030SOL    HW1 6146   2.921   0.186   4.822  0.1172 -1.1786  1.6056
 2030SOL    HW2 6147   2.973   0.243   4.952  2.6153  1.1693 -0.3216
 2031SOL     OW 6148   3.920   3.709   2.128 -0.7193  1.0606 -0.5540
 2031SOL    HW1 6149   3.858   3.680   2.062  0.1353  0.8326 -1.2862
 2031SOL    HW2 6150   3.868   3.719   2.208 -1.3792 -0.7822 -0.7099
 2032SOL     OW 6151   4.235   4.548   1.798 -0.0446 -0.0339 -0.4638
 2032SOL    HW1 6152   4.187   4.630   1.784 -2.8714 -1.3692  0.6294
 2032SOL    HW2 6153   4.214   4.523   1.888  1.9713 -1.2275 -0.2831
 2033SOL     OW 6154   3.995   0.320   1.050  0.0493  0.3995  0.6159
 2033SOL    HW1 6155   3.967   0.407   1.079  2.2045  0.1983  3.8013
 2033SOL    HW2 6156   4.079   0.335   1.007  0.7331 -0.1211  1.7307
 2034SOL     OW 6157   1.668   1.096   3.915 -0.3889  0.0570 -0.0793
 2034SOL    HW1 6158   1.621   1.013   3.923 -0.5503  0.3157  2.1391
 2034SOL    HW2 6159   1.710   1.108   4.000  0.6556  1.6566 -0.7820
 2035SOL     OW 6160   1.632   3.741   4.889 -0.1121 -0.3939 -0.1829
 2035SOL    HW1 6161   1.546   3.765   4.855 -0.0953 -0.8592 -0.5700
 2035SOL    HW2 6162   1.660   3.667   4.834  0.0698 -0.9288  0.6081
 2036SOL     OW 6163   1.780   0.497   0.800  0.3088  0.2449  0.2654
 2036SOL    HW1 6164   1.818   0.429   0.744  0.2311 -0.6757  1.2886
 2036SOL    HW2 6165   1.769   0.572   0.743  0.5043 -0.5701 -0.8743
 2037SOL     OW 6166   2.900   3.321   0.065  0.0980 -0.3954 -0.1982
 2037SOL    HW1 6167   2.846   3.399   0.059  0.1658 -0.2968  0.3956
 2037SOL    HW2 6168   2.865   3.274   0.141  0.9143 -0.2732  0.2669
 2038SOL     OW 6169   2.409   3.508   2.415  0.1585  0.5282 -0.1822
 2038SOL    HW1 6170   2.464   3.430   2.418  2.0489  1.7759 -0.3426
 2038SOL    HW2 6171   2.375   3.517   2.505  0.8365  0.1449  0.1213
 2039SOL     OW 6172   4.568   4.061   2.890  0.3344  0.0346  0.3565
 2039SOL    HW1 6173   4.489   4.107   2.861 -1.3797 -1.9107  1.6407
 2039SOL    HW2 6174   4.605   4.119   2.957  0.3524  1.2256 -0.6371
 2040SOL     OW 6175   0.505   4.113   0.681  0.5047 -0.1735 -0.4590
 2040SOL    HW1 6176   0.534   4.027   0.714 -0.3948 -0.2751  0.0973
 2040SOL    HW2 6177   0.445   4.091   0.610 -2.1364 -0.1379  1.6265
 2041SOL     OW 6178   3.994   3.307   1.100 -0.1341  0.2849  0.4093
 2041SOL    HW1 6179   3.946   3.384   1.132  1.4164  1.0656  0.9827
 2041SOL    HW2 6180   3.928   3.253   1.057 -1.2300  2.0891 -0.2738
 2042SOL     OW 6181   3.290   4.681   4.760 -0.1204 -0.1019 -0.2118
 2042SOL    HW1 6182   3.278   4.708   4.669 -1.6647  0.2876  0.0817
 2042SOL    HW2 6183   3.256   4.754   4.812 -0.7891 -0.9994  0.6476
 2043SOL     OW 6184   0.923   3.226   0.648  0.0218 -0.1959 -0.1275
 2043SOL    HW1 6185   0.891   3.282   0.719  0.3727 -0.6532  0.4029
 2043SOL    HW2 6186   1.017   3.246   0.642  0.0753 -0.4580 -0.1816
 2044SOL     OW 6187   3.167   4.341   1.214  0.2288  0.4754 -0.1160
 2044SOL    HW1 6188   3.262   4.342   1.224  0.2080  2.8538  0.3312
 2044SOL    HW2 6189   3.154   4.347   1.119  0.5644  1.6983 -0.1038
 2045SOL     OW 6190   4.291   3.992   3.117  0.3084  0.1080  0.1521
 2045SOL    HW1 6191   4.248   3.922   3.165  0.2749 -0.0299 -0.0730
 2045SOL    HW2 6192   4.230   4.065   3.119  0.8661  0.5713  1.4730
 2046SOL     OW 6193   3.036   0.427   3.489  0.0695  0.1463 -0.2048
 2046SOL    HW1 6194   2.992   0.344   3.468 -3.1682  2.2747 -2.6977
 2046SOL    HW2 6195   2.973   0.475   3.543  1.1247  1.7216 -0.3057
 2047SOL     OW 6196   0.138   2.890   1.202 -0.0650 -0.1063  0.2228
 2047SOL    HW1 6197   0.074   2.824   1.230  1.0795 -2.4205 -2.0934
 2047SOL    HW2 6198   0.221   2.842   1.199  0.9659  1.6395 -0.9422
 2048SOL     OW 6199   1.408   0.307   2.139 -0.0758 -0.0811  0.2799
 2048SOL    HW1 6200   1.461   0.350   2.072  0.4620 -2.6219 -1.0374
 2048SOL    HW2 6201   1.467   0.298   2.214  0.0719  0.6277  0.2598
 2049SOL     OW 6202   3.450   3.152   2.307  0.0985 -0.3250  0.1144
 2049SOL    HW1 6203   3.465   3.169   2.400 -1.4459 -0.2116  0.3803
 2049SOL    HW2 6204   3.526   3.189   2.263 -0.0143  1.3211  1.1990
 2050SOL     OW 6205   2.873   1.941   0.428  0.3843 -0.4391 -0.7818
 2050SOL    HW1 6206   2.846   2.024   0.388 -1.0594  0.0139  0.9985
 2050SOL    HW2 6207   2.968   1.942   0.423  0.4544  1.7258 -0.0705
 2051SOL     OW 6208   0.559   2.622   2.611 -0.5135  0.4261  0.3368
 2051SOL    HW1 6209   0.547   2.529   2.592  0.4267  0.0671  1.4242
 2051SOL    HW2 6210   0.479   2.648   2.655 -0.1478 -0.2802  1.4639
 2052SOL     OW 6211   3.036   4.778   2.854 -0.7669 -0.0740 -0.2488
 2052SOL    HW1 6212   3.120   4.820   2.874 -2.0752  1.9140  1.4763
 2052SOL    HW2 6213   3.011   4.816   2.770 -0.5439  0.3051 -0.1466
 2053SOL     OW 6214   1.164   1.074   4.958 -0.0660  0.2227  0.0655
 2053SOL    HW1 6215   1.119   1.039   5.034 -1.2758  0.8721 -0.3150
 2053SOL    HW2 6216   1.096   1.080   4.890  1.3794 -2.3307 -1.7948
 2054SOL     OW 6217   1.056   2.753   4.233  0.3244  0.1906 -0.2979
 2054SOL    HW1 6218   1.105   2.786   4.309  0.7960  1.9279 -1.3026
 2054SOL    HW2 6219   0.975   2.717   4.271  0.7433  0.6068  1.0586
 2055SOL     OW 6220   4.834   3.943   2.933 -0.5141  0.4740  0.3198
 2055SOL    HW1 6221   4.774   3.972   2.865 -1.7146  0.2414  1.2348
 2055SOL    HW2 6222   4.817   3.848   2.941 -1.7681  0.7805  2.1572
 2056SOL     OW 6223   4.273   0.869   2.246 -0.0478  0.2767  0.6361
 2056SOL    HW1 6224   4.328   0.914   2.182 -0.1729 -0.2688  0.1430
 2056SOL    HW2 6225   4.310   0.895   2.331 -0.4240  1.7059  0.3866
 2057SOL     OW 6226   2.197   1.851   1.062 -0.2811 -0.0010  0.4017
 2057SOL    HW1 6227   2.282   1.894   1.058  0.1896 -0.9894 -1.1687
 2057SOL    HW2 6228   2.146   1.904   1.124  0.4572  2.4513 -0.9312
 2058SOL     OW 6229   1.910   2.576   1.214 -0.3282  0.2231 -0.4782
 2058SOL    HW1 6230   2.001   2.545   1.213 -0.3856  0.0541 -0.7918
 2058SOL    HW2 6231   1.861   2.504   1.255 -0.3934  0.0974 -0.7742
 2059SOL     OW 6232   3.104   1.380   2.747 -0.3904  0.4844 -0.0941
 2059SOL    HW1 6233   3.033   1.345   2.801 -1.1658  1.7600 -0.2235
 2059SOL    HW2 6234   3.058   1.424   2.674  0.4585  2.3109  0.4173
 2060SOL     OW 6235   2.091   1.174   4.752 -0.1393 -0.2225 -0.4773
 2060SOL    HW1 6236   2.005   1.134   4.735 -0.2947 -0.3540  0.5961
 2060SOL    HW2 6237   2.122   1.200   4.665 -0.8322 -1.0582 -0.9957
 2061SOL     OW 6238   1.742   0.569   1.215 -0.7220 -0.4560 -0.1374
 2061SOL    HW1 6239   1.764   0.477   1.204 -1.2271 -0.6864  0.6521
 2061SOL    HW2 6240   1.817   0.617   1.180 -0.2905 -1.1744 -0.2007
 2062SOL     OW 6241   3.349   1.639   2.283 -0.5968  0.6146  0.0984
 2062SOL    HW1 6242   3.289   1.571   2.314 -0.5956  1.0804  1.1529
 2062SOL    HW2 6243   3.436   1.604   2.304 -0.6377  1.6103  2.1445
 2063SOL     OW 6244   1.556   2.813   0.774 -0.0208  0.0152 -0.6120
 2063SOL    HW1 6245   1.616   2.738   0.772 -0.8314 -0.7872  1.8165
 2063SOL    HW2 6246   1.481   2.784   0.721  0.1514 -0.4542 -0.6083
 2064SOL     OW 6247   3.527   3.286   3.132  0.0159  0.4030  0.5389
 2064SOL    HW1 6248   3.512   3.365   3.184 -1.5146  0.1416  0.5426
 2064SOL    HW2 6249   3.479   3.218   3.179 -0.3828 -0.0864 -0.5595
 2065SOL     OW 6250   1.955   3.283   0.054 -0.0500  0.0367  0.2036
 2065SOL    HW1 6251   2.036   3.245   0.087 -0.5922  0.6766  2.4246
 2065SOL    HW2 6252   1.964   3.377   0.070 -0.7651  0.2558 -0.6107
 2066SOL     OW 6253   0.328   0.314   2.420  0.1747 -0.0132 -0.3509
 2066SOL    HW1 6254   0.265   0.358   2.362  0.1440  0.9047  0.3560
 2066SOL    HW2 6255   0.274   0.258   2.475  0.0452  0.2610 -0.1979
 2067SOL     OW 6256   2.211   1.498   4.610  0.1326 -0.0813 -0.3498
 2067SOL    HW1 6257   2.215   1.594   4.617  3.3498 -0.1983  1.4212
 2067SOL    HW2 6258   2.243   1.479   4.522 -1.1871  0.4255 -0.9717
 2068SOL     OW 6259   1.429   4.116   0.112  0.6498 -0.1112 -0.1272
 2068SOL    HW1 6260   1.343   4.074   0.115  0.4207  0.3059 -0.6802
 2068SOL    HW2 6261   1.485   4.061   0.166  0.5703 -1.5605 -1.4829
 2069SOL     OW 6262   4.678   1.366   4.090  0.0604 -0.8140 -0.9772
 2069SOL    HW1 6263   4.718   1.352   4.175  0.8749 -1.9076 -1.5189
 2069SOL    HW2 6264   4.587   1.391   4.109  0.3833 -0.5137  0.2001
 2070SOL     OW 6265   2.448   1.056   0.491 -0.2975 -0.5687 -0.1828
 2070SOL    HW1 6266   2.378   1.119   0.475 -0.7769 -1.1705 -0.5078
 2070SOL    HW2 6267   2.505   1.063   0.415 -1.7858 -2.3821 -1.5800
 2071SOL     OW 6268   2.235   0.630   4.586 -0.3302 -0.7645 -0.3992
 2071SOL    HW1 6269   2.241   0.644   4.492  1.9702  1.7851 -0.0064
 2071SOL    HW2 6270   2.141   0.619   4.603 -0.9489  0.2271 -2.7838
 2072SOL     OW 6271   4.210   4.487   2.845  0.1200  0.7009  0.4066
 2072SOL    HW1 6272   4.210   4.572   2.890  2.3879  1.3454 -0.6627
 2072SOL    HW2 6273   4.213   4.510   2.752  1.1023 -0.5281  0.1137
 2073SOL     OW 6274   1.334   0.519   2.678 -0.0684  0.5265 -0.3819
 2073SOL    HW1 6275   1.282   0.575   2.735 -1.2383 -0.3970 -0.4994
 2073SOL    HW2 6276   1.316   0.552   2.590  0.9646  1.3323 -0.2995
 2074SOL     OW 6277   4.662   4.428   3.945  0.1521 -0.0752  0.4062
 2074SOL    HW1 6278   4.632   4.485   4.017 -0.9706  0.0948 -0.1706
 2074SOL    HW2 6279   4.637   4.340   3.974 -1.6158  0.1308 -0.3721
 2075SOL     OW 6280   0.591   4.484   4.863  0.1464 -0.3539 -0.0970
 2075SOL    HW1 6281   0.675   4.529   4.852  1.6457 -2.4999  1.5214
 2075SOL    HW2 6282   0.599   4.438   4.946 -1.7983 -2.3559 -0.9015
 2076SOL     OW 6283   3.664   3.743   3.235  0.6998  0.3028 -0.0243
 2076SOL    HW1 6284   3.714   3.666   3.206 -1.2216 -0.8435 -0.5003
 2076SOL    HW2 6285   3.613   3.712   3.310  1.2472  1.6513  0.9476
 2077SOL     OW 6286   4.862   1.829   1.967  0.1281 -0.3675 -0.0550
 2077SOL    HW1 6287   4.794   1.866   2.023 -0.7780 -1.0541 -0.6651
 2077SOL    HW2 6288   4.851   1.875   1.883  1.2455  0.4094  0.2002
 2078SOL     OW 6289   2.474   1.783   3.522  0.6155  0.2844 -0.0641
 2078SOL    HW1 6290   2.535   1.710   3.523  1.1361  0.6954 -0.6940
 2078SOL    HW2 6291   2.387   1.742   3.518  0.8913 -0.2939 -0.1847
 2079SOL     OW 6292   1.076   0.760   0.717  0.5167 -0.2773  0.0853
 2079SOL    HW1 6293   1.129   0.689   0.750  0.7487 -0.5251 -0.7994
 2079SOL    HW2 6294   1.048   0.731   0.630  0.7833  0.7870 -0.3726
 2080SOL     OW 6295   4.937   4.639   2.130  0.1356 -0.4443 -0.0845
 2080SOL    HW1 6296   4.852   4.682   2.140 -0.2698 -1.5623  1.6863
 2080SOL    HW2 6297   4.951   4.637   2.035 -2.6800 -1.8129 -0.5863
 2081SOL     OW 6298   2.152   2.473   4.357 -0.2377 -0.4931  0.6665
 2081SOL    HW1 6299   2.104   2.410   4.303 -0.6630 -0.2869  0.7979
 2081SOL    HW2 6300   2.235   2.429   4.377  0.0978 -0.4224 -0.4736
 2082SOL     OW 6301   1.804   4.835   4.794 -0.0597 -0.1436 -0.1868
 2082SOL    HW1 6302   1.875   4.862   4.853 -0.9630 -0.9241  1.3305
 2082SOL    HW2 6303   1.848   4.789   4.723  1.1017  1.0963 -0.3159
 2083SOL     OW 6304   4.672   1.665   3.507 -0.1127 -0.3729  0.3924
 2083SOL    HW1 6305   4.648   1.573   3.500  0.6502 -0.6192  0.9339
 2083SOL    HW2 6306   4.764   1.668   3.481 -0.2220  0.2891  0.0626
 2084SOL     OW 6307   3.803   2.614   1.479  0.3715  0.0048  0.0983
 2084SOL    HW1 6308   3.878   2.555   1.480  1.5731  1.4911  0.0059
 2084SOL    HW2 6309   3.776   2.617   1.387 -0.4779 -1.2950  0.2655
 2085SOL     OW 6310   0.554   1.958   4.682  0.0622  0.1534  0.0503
 2085SOL    HW1 6311   0.498   1.891   4.643 -1.0228  1.1093 -0.0917
 2085SOL    HW2 6312   0.558   2.027   4.616 -0.5089  1.1104  0.9777
 2086SOL     OW 6313   1.979   0.201   2.465 -0.2438 -0.1891 -0.3571
 2086SOL    HW1 6314   1.955   0.281   2.513 -0.4763 -0.6387  0.2767
 2086SOL    HW2 6315   1.935   0.131   2.512 -0.1395 -0.6847 -0.9907
 2087SOL     OW 6316   2.161   3.930   4.790  0.0606  0.2498  0.2977
 2087SOL    HW1 6317   2.113   3.857   4.751  4.5599 -1.5976 -2.5297
 2087SOL    HW2 6318   2.150   4.002   4.728  0.1161  0.1871  0.2158
 2088SOL     OW 6319   3.228   1.419   1.293  0.0432 -1.1604  0.3292
 2088SOL    HW1 6320   3.193   1.493   1.244 -0.9198 -0.1546  2.4179
 2088SOL    HW2 6321   3.161   1.351   1.286 -0.6982 -0.5595  1.2309
 2089SOL     OW 6322   2.334   3.900   2.940 -0.4514 -0.0907 -0.1002
 2089SOL    HW1 6323   2.351   3.864   3.026 -0.7409 -0.8693 -0.3615
 2089SOL    HW2 6324   2.379   3.984   2.940 -1.7178  0.6396  1.3475
 2090SOL     OW 6325   3.844   3.899   4.340  0.7952 -0.0112 -0.0567
 2090SOL    HW1 6326   3.901   3.964   4.383  0.1592  0.1697  0.5281
 2090SOL    HW2 6327   3.823   3.938   4.256 -0.7417  1.2308  0.8464
 2091SOL     OW 6328   1.313   2.301   4.353  0.4746  0.4816  0.3478
 2091SOL    HW1 6329   1.224   2.334   4.367  0.5472  0.1299  1.7560
 2091SOL    HW2 6330   1.366   2.381   4.347  0.0170  0.7201 -1.1535
 2092SOL     OW 6331   4.840   4.398   0.258  0.2821 -0.3258  0.2837
 2092SOL    HW1 6332   4.786   4.450   0.198  0.8675  1.2899  1.0952
 2092SOL    HW2 6333   4.848   4.313   0.215 -1.3311  0.0043 -0.7487
 2093SOL     OW 6334   2.943   1.237   2.921  0.4688  0.1392 -0.2959
 2093SOL    HW1 6335   2.928   1.250   3.015 -1.4896  0.2868 -0.5826
 2093SOL    HW2 6336   3.009   1.168   2.916  2.7053  2.0402  1.1795
 2094SOL     OW 6337   1.441   3.302   1.089  0.4087 -0.2873  0.4740
 2094SOL    HW1 6338   1.426   3.396   1.084  0.7998 -0.2056  0.7708
 2094SOL    HW2 6339   1.399   3.275   1.171 -0.1760 -0.4680  0.1217
 2095SOL     OW 6340   4.394   2.169   4.364 -0.3582  0.1349  0.6449
 2095SOL    HW1 6341   4.305   2.181   4.396 -0.4824 -0.5688  0.5911
 2095SOL    HW2 6342   4.383   2.121   4.282  0.1476 -1.5165  1.5007
 2096SOL     OW 6343   1.941   3.737   3.384  0.2949 -0.0777 -0.3736
 2096SOL    HW1 6344   1.911   3.671   3.446  1.9727  0.0726  0.6643
 2096SOL    HW2 6345   2.020   3.699   3.345  1.0781  1.1296 -0.0247
 2097SOL     OW 6346   4.244   3.895   1.956  0.5185  0.4037 -0.4643
 2097SOL    HW1 6347   4.291   3.857   1.882 -0.1099  0.1649 -0.7470
 2097SOL    HW2 6348   4.158   3.917   1.921  0.4559  0.9364  0.0190
 2098SOL     OW 6349   0.291   4.887   2.548 -0.5241 -0.0312 -0.1557
 2098SOL    HW1 6350   0.280   4.912   2.456 -1.0739 -2.7447 -0.9121
 2098SOL    HW2 6351   0.213   4.919   2.592 -0.8557  0.2002 -0.9050
 2099SOL     OW 6352   0.424   0.379   4.600  0.5240 -0.1620  0.4625
 2099SOL    HW1 6353   0.454   0.364   4.511 -1.6869 -0.4039 -0.2737
 2099SOL    HW2 6354   0.474   0.317   4.653  0.7430 -1.0914 -0.8056
 2100SOL     OW 6355   4.284   1.110   0.121  0.0175 -0.2079  0.5274
 2100SOL    HW1 6356   4.336   1.033   0.142 -0.3207 -0.2424  1.2782
 2100SOL    HW2 6357   4.325   1.181   0.172 -0.4774 -0.1746  0.8880
 2101SOL     OW 6358   0.011   3.800   0.232 -0.1752  0.0864  0.2694
 2101SOL    HW1 6359   0.056   3.721   0.202  1.6874  0.7754  1.0790
 2101SOL    HW2 6360  -0.004   3.850   0.152 -1.0791 -0.9284 -0.2120
 2102SOL     OW 6361   1.422   0.035   0.391  0.4745  0.0072  0.1176
 2102SOL    HW1 6362   1.497   0.077   0.348 -0.4273  0.3959 -1.1224
 2102SOL    HW2 6363   1.455  -0.050   0.419  1.1092 -0.2567 -1.3428
 2103SOL     OW 6364   4.928   1.701   2.259  0.1605 -0.0704  0.0175
 2103SOL    HW1 6365   4.958   1.745   2.179  2.6406 -1.9878 -0.2326
 2103SOL    HW2 6366   4.946   1.763   2.329 -1.5132  1.4120 -0.7655
 2104SOL     OW 6367   3.989   0.723   2.392 -0.3629  0.4794 -0.8800
 2104SOL    HW1 6368   3.987   0.814   2.421  1.7065 -0.0646  1.2721
 2104SOL    HW2 6369   3.955   0.726   2.302 -2.9391  2.9251  0.0281
 2105SOL     OW 6370   3.871   1.237   2.368 -0.3182 -0.0181  0.3756
 2105SOL    HW1 6371   3.796   1.179   2.383 -1.2670  1.4042  1.3353
 2105SOL    HW2 6372   3.900   1.262   2.456  2.4419 -1.8805  0.1272
 2106SOL     OW 6373   3.819   2.945   3.200  0.1076  0.0001  0.3190
 2106SOL    HW1 6374   3.729   2.940   3.167  0.9193 -2.1238 -1.8770
 2106SOL    HW2 6375   3.824   2.877   3.268 -0.1143  0.6954  1.0574
 2107SOL     OW 6376   3.309   1.114   0.384 -0.0766 -0.3046 -0.1710
 2107SOL    HW1 6377   3.361   1.047   0.340  0.2183  0.0056 -0.3017
 2107SOL    HW2 6378   3.227   1.116   0.335  0.2942  0.1236 -0.8062
 2108SOL     OW 6379   1.448   3.102   2.388  0.4328 -0.5208 -0.3098
 2108SOL    HW1 6380   1.458   3.017   2.345  1.8273  0.1913 -1.5165
 2108SOL    HW2 6381   1.371   3.093   2.443 -0.7556 -1.8686 -2.0978
 2109SOL     OW 6382   0.255   4.308   0.508 -0.2623  0.3719 -0.4746
 2109SOL    HW1 6383   0.296   4.224   0.488  0.3027 -0.0466  2.0730
 2109SOL    HW2 6384   0.161   4.293   0.496 -0.1544 -0.5853 -0.1828
 2110SOL     OW 6385   0.890   3.516   1.524 -0.1017 -0.1933  0.8085
 2110SOL    HW1 6386   0.854   3.602   1.504 -2.1004 -1.1578 -0.0685
 2110SOL    HW2 6387   0.848   3.491   1.606  0.3482 -0.3964  0.9778
 2111SOL     OW 6388   0.316   1.826   0.889  0.4321  0.0226  0.0561
 2111SOL    HW1 6389   0.297   1.755   0.951 -0.4800  0.1088 -0.1040
 2111SOL    HW2 6390   0.238   1.829   0.833  0.8813  0.5156 -0.5464
 2112SOL     OW 6391   0.676   4.685   0.680  0.6167  0.0755 -0.9207
 2112SOL    HW1 6392   0.751   4.626   0.689 -0.6732 -1.3477  1.6372
 2112SOL    HW2 6393   0.700   4.764   0.728  0.2281 -0.7309  0.6765
 2113SOL     OW 6394   1.865   4.338   0.330  0.3034  0.3872  1.0444
 2113SOL    HW1 6395   1.891   4.328   0.422  2.7817  1.6659  0.5939
 2113SOL    HW2 6396   1.913   4.416   0.301  0.6165 -0.7146 -1.6762
 2114SOL     OW 6397   0.436   2.473   4.182  0.1605  1.0533  0.1372
 2114SOL    HW1 6398   0.470   2.443   4.097 -1.2505  0.4993 -0.2579
 2114SOL    HW2 6399   0.509   2.459   4.243  0.8108  0.3725 -0.7643
 2115SOL     OW 6400   3.679   4.811   1.804 -0.4886 -0.0357 -0.4772
 2115SOL    HW1 6401   3.714   4.722   1.795 -2.8771 -0.8646 -2.2974
 2115SOL    HW2 6402   3.682   4.828   1.899  2.7560 -0.7951 -0.3246
 2116SOL     OW 6403   3.890   2.155   3.021  0.3416 -0.2439 -0.6333
 2116SOL    HW1 6404   3.973   2.202   3.016 -0.8065  1.9039 -0.5469
 2116SOL    HW2 6405   3.911   2.074   3.068  2.0370  1.0680  0.9921
 2117SOL     OW 6406   3.657   3.338   2.116  0.3097 -0.2925 -0.0002
 2117SOL    HW1 6407   3.682   3.374   2.031  0.4758 -0.6772 -0.1145
 2117SOL    HW2 6408   3.740   3.324   2.161  0.2668 -0.8473 -0.0860
 2118SOL     OW 6409   0.710   0.442   1.139 -0.2701 -0.4099 -0.1109
 2118SOL    HW1 6410   0.782   0.485   1.094 -0.0644  0.1789  0.7723
 2118SOL    HW2 6411   0.673   0.382   1.073  0.1031  0.3359 -1.0188
 2119SOL     OW 6412   2.213   0.404   3.813 -0.0296 -0.0049  0.7449
 2119SOL    HW1 6413   2.265   0.479   3.784 -0.5309  0.2743  0.5416
 2119SOL    HW2 6414   2.233   0.334   3.750  1.4646 -0.4786  1.7182
 2120SOL     OW 6415   3.127   4.468   4.675 -0.7007  0.1858  0.7758
 2120SOL    HW1 6416   3.190   4.398   4.659 -1.1090  0.0025 -0.0932
 2120SOL    HW2 6417   3.176   4.535   4.722  0.8146  1.0820 -1.8659
 2121SOL     OW 6418   3.311   3.591   1.497  0.2555  0.0060  0.1072
 2121SOL    HW1 6419   3.282   3.619   1.410  1.6644 -1.6561 -0.9736
 2121SOL    HW2 6420   3.292   3.497   1.499  1.0841 -0.1497  1.2293
 2122SOL     OW 6421   2.216   4.198   3.037  0.1606 -0.0090 -0.2712
 2122SOL    HW1 6422   2.285   4.144   3.076  0.1537  0.0545 -0.1705
 2122SOL    HW2 6423   2.251   4.223   2.952  0.9360  1.3080  0.3900
 2123SOL     OW 6424   0.571   1.999   2.079  0.0272 -0.6219  0.4587
 2123SOL    HW1 6425   0.536   2.084   2.109 -1.2078 -0.6529 -0.8180
 2123SOL    HW2 6426   0.494   1.950   2.051  0.8147 -1.8971  0.4662
 2124SOL     OW 6427   0.080   1.113   1.015 -0.1894  0.1105 -0.2583
 2124SOL    HW1 6428   0.105   1.204   1.029  0.5182  0.0634 -1.1621
 2124SOL    HW2 6429   0.074   1.076   1.103 -0.3602  0.9877  0.1109
 2125SOL     OW 6430   0.978   1.751   1.490  0.3833  0.3164 -0.8997
 2125SOL    HW1 6431   0.919   1.753   1.414 -0.7068  0.6068 -0.0730
 2125SOL    HW2 6432   0.952   1.673   1.539 -0.0902  1.0397  0.0481
 2126SOL     OW 6433   3.253   2.217   4.665 -0.3577 -0.1315 -0.4133
 2126SOL    HW1 6434   3.314   2.198   4.735 -0.0225  1.0659 -0.3517
 2126SOL    HW2 6435   3.268   2.148   4.600 -0.4518 -1.0610  0.5415
 2127SOL     OW 6436   4.649   4.551   2.911  0.4467 -0.3068 -0.1004
 2127SOL    HW1 6437   4.662   4.624   2.971 -1.8717  0.8181 -0.8254
 2127SOL    HW2 6438   4.654   4.591   2.824 -2.5674 -0.5211 -0.4973
 2128SOL     OW 6439   2.496   4.812   1.259  0.8793  0.0066  0.5820
 2128SOL    HW1 6440   2.491   4.800   1.354 -1.9753 -0.8357  0.4221
 2128SOL    HW2 6441   2.492   4.724   1.224  1.4520  0.3435 -0.3470
 2129SOL     OW 6442   0.310   3.215   4.653  0.0537  0.6900  0.5029
 2129SOL    HW1 6443   0.397   3.219   4.693  0.0450  0.5721  0.5338
 2129SOL    HW2 6444   0.325   3.175   4.567  0.0139  0.5585  0.5564
 2130SOL     OW 6445   3.289   2.548   2.931  0.2977 -0.7740  0.2179
 2130SOL    HW1 6446   3.220   2.516   2.989  1.5363 -1.5937  1.3096
 2130SOL    HW2 6447   3.311   2.473   2.876 -0.4654 -0.1707 -0.9483
 2131SOL     OW 6448   1.066   3.357   3.068 -0.7491  0.0287 -0.2720
 2131SOL    HW1 6449   1.110   3.442   3.075 -1.2397  0.3742 -1.2722
 2131SOL    HW2 6450   0.976   3.378   3.043 -0.6833 -0.8137 -1.2742
 2132SOL     OW 6451   2.195   0.576   2.387 -0.1036  0.0780  0.1034
 2132SOL    HW1 6452   2.216   0.606   2.298 -1.1150  1.5520  0.3383
 2132SOL    HW2 6453   2.263   0.511   2.406  0.9106  0.6821 -1.2451
 2133SOL     OW 6454   3.308   1.806   2.563  0.5101 -0.1297  0.1377
 2133SOL    HW1 6455   3.330   1.730   2.510  0.0850  1.0722 -1.8670
 2133SOL    HW2 6456   3.213   1.818   2.551  0.7440  1.3392 -0.4933
 2134SOL     OW 6457   4.076   4.938   4.220  0.0738 -0.4935 -0.3071
 2134SOL    HW1 6458   3.993   4.938   4.173 -0.0278 -2.3124 -0.1749
 2134SOL    HW2 6459   4.067   5.008   4.285 -1.5429 -1.0049  0.0411
 2135SOL     OW 6460   1.806   0.393   4.823  0.1409 -0.2338  0.0189
 2135SOL    HW1 6461   1.838   0.339   4.751  0.0529 -0.3799  0.0899
 2135SOL    HW2 6462   1.724   0.352   4.850 -0.1158  0.1454 -0.1678
 2136SOL     OW 6463   2.297   2.658   3.061  0.0589 -0.2525  0.0181
 2136SOL    HW1 6464   2.213   2.616   3.079  0.8370 -1.5962  0.6657
 2136SOL    HW2 6465   2.286   2.748   3.091 -2.4262  0.8283 -3.4634
 2137SOL     OW 6466   1.912   4.429   0.932 -0.1984  0.1759  0.6858
 2137SOL    HW1 6467   1.906   4.510   0.982 -0.5389  1.3747 -1.1828
 2137SOL    HW2 6468   1.827   4.387   0.944 -0.7630  1.1077  0.1155
 2138SOL     OW 6469   1.121   2.444   1.378 -0.0078 -0.0622  0.4120
 2138SOL    HW1 6470   1.073   2.370   1.341 -1.1106  0.4843  0.6999
 2138SOL    HW2 6471   1.195   2.457   1.319 -0.6460 -0.4424 -0.4960
 2139SOL     OW 6472   3.406   4.833   3.975 -0.1011 -0.1585 -0.6913
 2139SOL    HW1 6473   3.398   4.874   4.061  0.4227  0.3132 -0.8639
 2139SOL    HW2 6474   3.361   4.892   3.915 -0.9022 -0.7355 -0.6749
 2140SOL     OW 6475   2.517   3.642   3.079 -0.4149  0.5679  0.4033
 2140SOL    HW1 6476   2.573   3.566   3.091 -1.0748  0.0693  0.3777
 2140SOL    HW2 6477   2.516   3.657   2.985  0.5407  1.2505  0.4892
 2141SOL     OW 6478   0.827   2.589   0.158  0.1747 -0.0888  1.1077
 2141SOL    HW1 6479   0.899   2.528   0.144 -0.4691 -0.6549  0.1334
 2141SOL    HW2 6480   0.774   2.582   0.078 -0.1977  1.3585  1.2114
 2142SOL     OW 6481   3.622   3.072   3.488  0.0857 -0.1463 -0.4750
 2142SOL    HW1 6482   3.619   2.991   3.437 -0.8771 -0.3599 -0.0955
 2142SOL    HW2 6483   3.618   3.043   3.579 -2.2952  0.3780 -0.3595
 2143SOL     OW 6484   2.702   1.521   4.567 -0.2922 -0.4064  0.7834
 2143SOL    HW1 6485   2.617   1.548   4.600 -0.2666  2.5949 -1.1985
 2143SOL    HW2 6486   2.693   1.520   4.472  1.5842 -1.1722  0.5522
 2144SOL     OW 6487   1.977   2.080   1.445  0.1489  0.0313 -0.4443
 2144SOL    HW1 6488   1.982   2.021   1.370  0.1182 -0.3477 -0.1498
 2144SOL    HW2 6489   1.889   2.117   1.441  0.2351  0.2036 -0.7402
 2145SOL     OW 6490   4.081   0.770   3.761 -0.1825  0.1738  0.0446
 2145SOL    HW1 6491   4.150   0.797   3.822 -0.6513 -0.8382  1.0652
 2145SOL    HW2 6492   4.016   0.839   3.768  1.3204  1.9346 -2.0598
 2146SOL     OW 6493   4.161   1.509   0.245 -0.1460 -0.3100  0.1936
 2146SOL    HW1 6494   4.222   1.443   0.212 -0.1648  0.2823 -1.0476
 2146SOL    HW2 6495   4.210   1.591   0.242 -0.5108 -0.0722  0.6257
 2147SOL     OW 6496   1.120   1.858   3.693  0.1681 -0.0385 -0.0234
 2147SOL    HW1 6497   1.144   1.901   3.611  2.2623  0.4032  0.7752
 2147SOL    HW2 6498   1.162   1.772   3.688  0.5964  0.1249  0.7222
 2148SOL     OW 6499   1.355   1.070   4.225 -0.0174 -0.3784  0.2738
 2148SOL    HW1 6500   1.445   1.104   4.222 -0.2370  0.2272  0.5594
 2148SOL    HW2 6501   1.336   1.060   4.318  0.1425 -1.5737  0.2033
 2149SOL     OW 6502   1.678   4.764   3.894 -0.2599  0.8280  0.1671
 2149SOL    HW1 6503   1.676   4.855   3.925 -1.3001  0.2057  2.1467
 2149SOL    HW2 6504   1.623   4.717   3.957  0.5389 -1.2396 -0.6101
 2150SOL     OW 6505   2.366   0.372   2.447 -0.2783 -0.1905  0.4851
 2150SOL    HW1 6506   2.375   0.277   2.450  2.0683 -0.4104 -3.8585
 2150SOL    HW2 6507   2.434   0.405   2.506  0.6431 -1.3092  0.0747
 2151SOL     OW 6508   2.772   1.801   4.486 -0.3732 -0.2698  0.2627
 2151SOL    HW1 6509   2.824   1.788   4.407 -0.9512  0.9628 -0.3610
 2151SOL    HW2 6510   2.833   1.788   4.558  1.0840  2.1323 -0.4459
 2152SOL     OW 6511   4.106   4.916   3.867 -0.1090 -0.1635  0.2662
 2152SOL    HW1 6512   4.013   4.925   3.890 -0.7159  1.8142 -2.4619
 2152SOL    HW2 6513   4.112   4.830   3.827 -0.1382 -1.3952  2.7420
 2153SOL     OW 6514   3.830   4.792   3.393 -0.6617  0.4782 -0.2616
 2153SOL    HW1 6515   3.923   4.793   3.418 -0.5213 -0.8886 -0.6400
 2153SOL    HW2 6516   3.830   4.824   3.303 -0.5227  0.1734 -0.3699
 2154SOL     OW 6517   2.845   0.693   2.134  0.2575  0.4024  0.1846
 2154SOL    HW1 6518   2.917   0.733   2.183  1.1883 -0.4444 -0.4486
 2154SOL    HW2 6519   2.846   0.601   2.161 -0.3813  0.3126 -0.0830
 2155SOL     OW 6520   1.915   3.907   1.538 -0.1191  0.4401 -0.4700
 2155SOL    HW1 6521   1.904   3.870   1.626  0.7851 -0.1576 -0.5942
 2155SOL    HW2 6522   1.925   4.001   1.553 -2.8933  0.7843 -0.1823
 2156SOL     OW 6523   2.149   3.064   4.861 -0.2160  0.1914 -0.3868
 2156SOL    HW1 6524   2.057   3.037   4.860 -0.1665 -0.0873  1.1825
 2156SOL    HW2 6525   2.190   3.011   4.791 -1.2912  0.5792 -1.3479
 2157SOL     OW 6526   4.594   3.675   1.871  0.5425  0.0213 -0.3772
 2157SOL    HW1 6527   4.680   3.717   1.870  0.0497  1.1117 -1.8068
 2157SOL    HW2 6528   4.591   3.627   1.954  2.1789  0.6604  0.0946
 2158SOL     OW 6529   4.178   3.041   2.914  0.4764  0.3323 -0.4738
 2158SOL    HW1 6530   4.248   3.100   2.941  1.4565 -1.2072  0.4847
 2158SOL    HW2 6531   4.183   2.968   2.976 -1.8620  0.0801 -0.4998
 2159SOL     OW 6532   1.399   1.964   4.906 -0.6530  0.7397  0.1946
 2159SOL    HW1 6533   1.307   1.956   4.930 -0.2880 -1.1928  1.1404
 2159SOL    HW2 6534   1.444   1.901   4.962  0.8614 -0.6601 -2.3806
 2160SOL     OW 6535   3.192   1.957   1.460 -0.7276  0.5373  0.0024
 2160SOL    HW1 6536   3.167   1.978   1.550  0.0978  0.7234  0.2033
 2160SOL    HW2 6537   3.239   2.035   1.430 -2.4095  1.1470 -1.1742
 2161SOL     OW 6538   2.266   4.394   3.685 -0.0066  0.7235 -0.3199
 2161SOL    HW1 6539   2.214   4.345   3.750 -1.3991  0.5551 -1.5073
 2161SOL    HW2 6540   2.217   4.475   3.672  1.3044  1.6446  0.2499
 2162SOL     OW 6541   4.959   3.186   2.731  0.6985 -0.1476  0.4504
 2162SOL    HW1 6542   4.987   3.161   2.819  2.7421 -0.3607 -0.2159
 2162SOL    HW2 6543   4.956   3.282   2.733  0.5769 -0.1587  0.8030
 2163SOL     OW 6544   1.998   1.430   4.821 -0.1991 -0.6341 -0.4429
 2163SOL    HW1 6545   1.995   1.335   4.822  1.6019 -0.7401  2.1620
 2163SOL    HW2 6546   2.076   1.452   4.770  0.3830 -0.6222  0.4458
 2164SOL     OW 6547   2.632   2.879   4.195 -0.0985  0.1057 -0.2302
 2164SOL    HW1 6548   2.580   2.864   4.274  2.9390 -0.4205  1.8401
 2164SOL    HW2 6549   2.673   2.795   4.177 -1.1274  0.0610 -2.8076
 2165SOL     OW 6550   2.743   3.943   4.459 -0.1993 -0.2479  0.7853
 2165SOL    HW1 6551   2.781   4.000   4.391  1.0330 -0.6930  1.0807
 2165SOL    HW2 6552   2.691   4.002   4.513 -0.2398  0.3213  0.1379
 2166SOL     OW 6553   1.945   4.712   2.023 -0.3136 -0.2098 -0.4531
 2166SOL    HW1 6554   2.012   4.743   1.963 -1.8740  0.1841 -2.0906
 2166SOL    HW2 6555   1.891   4.652   1.971 -2.3082  0.8906  0.2080
 2167SOL     OW 6556   0.893   4.546   2.852  0.0123 -0.3580 -1.1723
 2167SOL    HW1 6557   0.855   4.631   2.873  0.8127 -0.5271  1.1820
 2167SOL    HW2 6558   0.820   4.484   2.858  0.2174 -0.4347  1.6260
 2168SOL     OW 6559   3.614   0.118   1.750  1.1341  0.1745  0.4424
 2168SOL    HW1 6560   3.687   0.179   1.752  1.9109 -0.5715 -1.6674
 2168SOL    HW2 6561   3.655   0.032   1.759  0.5766 -0.2625 -0.9342
 2169SOL     OW 6562   2.913   4.442   2.164  0.1071  0.1195 -0.0552
 2169SOL    HW1 6563   2.907   4.450   2.259  0.0422  1.4964 -0.1507
 2169SOL    HW2 6564   2.964   4.519   2.137  0.5780 -0.5380 -1.0857
 2170SOL     OW 6565   4.431   1.967   3.024 -0.5521 -0.3419  0.4340
 2170SOL    HW1 6566   4.397   2.054   3.004  0.3677 -0.1135 -0.1460
 2170SOL    HW2 6567   4.472   1.977   3.110 -1.6582 -0.5473  1.0015
 2171SOL     OW 6568   4.572   3.232   4.647  0.1642  0.5890  0.1284
 2171SOL    HW1 6569   4.558   3.263   4.558 -0.0171  1.4211  0.4375
 2171SOL    HW2 6570   4.497   3.176   4.665  0.2390  0.3563 -0.2593
 2172SOL     OW 6571   3.813   4.294   0.117  0.2612  0.4193  0.0598
 2172SOL    HW1 6572   3.720   4.272   0.113  0.0499  1.4818 -1.8169
 2172SOL    HW2 6573   3.844   4.253   0.198 -1.7010 -0.4273  0.4282
 2173SOL     OW 6574   1.348   1.976   1.888 -0.2604 -0.3755  0.6717
 2173SOL    HW1 6575   1.420   2.010   1.836 -0.4144 -1.3759 -0.2228
 2173SOL    HW2 6576   1.269   2.011   1.847 -0.3224  0.3797  1.3997
 2174SOL     OW 6577   3.183   2.226   1.670 -0.1645 -0.3532  0.1075
 2174SOL    HW1 6578   3.150   2.293   1.730  1.9661  0.2222  0.7195
 2174SOL    HW2 6579   3.149   2.144   1.706 -0.9758  0.1892  0.6377
 2175SOL     OW 6580   1.329   4.243   1.119 -0.1586  0.0744  0.3821
 2175SOL    HW1 6581   1.333   4.335   1.093 -0.9545  0.1588  0.5514
 2175SOL    HW2 6582   1.417   4.224   1.152 -0.4631  1.2502  1.9598
 2176SOL     OW 6583   3.312   4.125   2.741 -0.1895  0.5606 -0.3088
 2176SOL    HW1 6584   3.386   4.069   2.716 -0.6229 -0.7876  1.2500
 2176SOL    HW2 6585   3.342   4.172   2.818 -0.4057  1.2481 -0.6390
 2177SOL     OW 6586   4.483   4.567   4.757 -0.1735  0.1544 -0.0216
 2177SOL    HW1 6587   4.417   4.546   4.823 -0.4837 -0.5030 -0.5277
 2177SOL    HW2 6588   4.540   4.490   4.755 -1.2741 -0.7007 -1.8433
 2178SOL     OW 6589   0.637   1.289   4.663  0.7127 -0.4333  0.6557
 2178SOL    HW1 6590   0.582   1.352   4.707  0.9906 -0.8822  1.6771
 2178SOL    HW2 6591   0.663   1.331   4.581 -0.7995 -0.0679  0.3526
 2179SOL     OW 6592   3.833   2.343   2.519 -0.7869  0.1563  0.2079
 2179SOL    HW1 6593   3.913   2.305   2.484  0.3037  1.6020  0.9912
 2179SOL    HW2 6594   3.828   2.309   2.609 -0.9524  0.2041  0.2169
 2180SOL     OW 6595   2.877   0.555   4.462  0.0693 -0.6070 -0.2842
 2180SOL    HW1 6596   2.845   0.644   4.450  0.4408 -0.5894 -1.2627
 2180SOL    HW2 6597   2.927   0.557   4.544  1.3872  0.4831 -1.0703
 2181SOL     OW 6598   4.621   1.152   4.971 -0.3613  0.2245  0.3311
 2181SOL    HW1 6599   4.676   1.201   4.910  2.0960 -1.9943  0.5990
 2181SOL    HW2 6600   4.534   1.155   4.932 -0.5912  5.0379  0.5610
 2182SOL     OW 6601   0.206   4.265   2.939  0.0060  0.1564  0.1167
 2182SOL    HW1 6602   0.183   4.200   2.873  0.2374  0.8273 -0.6359
 2182SOL    HW2 6603   0.121   4.293   2.975 -0.0540 -1.1806  1.0767
 2183SOL     OW 6604   3.325   4.002   4.238 -0.0870 -0.1964 -0.1250
 2183SOL    HW1 6605   3.403   3.968   4.282  0.3547  0.3028 -0.5123
 2183SOL    HW2 6606   3.322   3.955   4.154 -0.0580 -0.0271 -0.2211
 2184SOL     OW 6607   3.864   2.471   2.208 -0.8702  0.2590 -0.0290
 2184SOL    HW1 6608   3.793   2.430   2.258 -0.6384 -0.5189 -0.3073
 2184SOL    HW2 6609   3.863   2.424   2.124  1.6343 -1.6187  0.8695
 2185SOL     OW 6610   1.179   4.548   3.141 -0.2066 -0.2680  0.6394
 2185SOL    HW1 6611   1.184   4.541   3.045 -0.5064 -0.4662  0.6381
 2185SOL    HW2 6612   1.269   4.534   3.170 -0.1661 -0.5028  0.4057
 2186SOL     OW 6613   3.766   3.845   4.719  0.3298  0.2434 -0.3815
 2186SOL    HW1 6614   3.781   3.780   4.650  1.1148  0.2150 -0.1912
 2186SOL    HW2 6615   3.672   3.861   4.716  0.1638 -0.7052 -0.6076
 2187SOL     OW 6616   4.517   2.849   3.242 -0.4699 -0.2322 -0.5651
 2187SOL    HW1 6617   4.536   2.818   3.330 -0.4910 -0.6637 -0.7128
 2187SOL    HW2 6618   4.506   2.944   3.252  1.6795  0.0590 -0.4567
 2188SOL     OW 6619   3.960   2.129   0.968 -0.3051 -0.1258 -0.1876
 2188SOL    HW1 6620   3.930   2.177   1.045 -0.8485  0.6412 -0.8590
 2188SOL    HW2 6621   4.044   2.092   0.993 -1.3847 -1.5925  1.4620
 2189SOL     OW 6622   4.768   4.895   1.324 -0.0647 -0.2853  0.5769
 2189SOL    HW1 6623   4.792   4.909   1.416  0.3370  1.9940  0.1713
 2189SOL    HW2 6624   4.763   4.983   1.287  0.4905 -1.1872 -1.7736
 2190SOL     OW 6625   0.918   2.512   4.129  0.0539  0.0242  0.0303
 2190SOL    HW1 6626   0.977   2.444   4.097  0.8218 -0.4948  2.3038
 2190SOL    HW2 6627   0.976   2.577   4.169 -0.7139  1.6758 -1.3896
 2191SOL     OW 6628   4.780   1.771   0.807  0.4093  0.4695 -0.4425
 2191SOL    HW1 6629   4.768   1.846   0.750  0.7757 -0.2999 -1.5533
 2191SOL    HW2 6630   4.722   1.788   0.882  1.5178  2.5065  0.0212
 2192SOL     OW 6631   2.438   4.105   3.891  0.0651  0.8771 -0.3097
 2192SOL    HW1 6632   2.414   4.016   3.919  1.2832  0.6229 -0.0316
 2192SOL    HW2 6633   2.439   4.156   3.972 -1.6634  1.4284 -0.5844
 2193SOL     OW 6634   3.071   2.898   0.756  1.0207  0.3555  0.0768
 2193SOL    HW1 6635   3.120   2.977   0.780  0.3941  1.4816 -2.0802
 2193SOL    HW2 6636   3.110   2.829   0.809  1.3442  2.1535  2.3368
 2194SOL     OW 6637   3.057   2.818   4.079 -0.1998  0.5475  0.0654
 2194SOL    HW1 6638   2.975   2.769   4.087 -0.4255  0.7639 -0.8037
 2194SOL    HW2 6639   3.036   2.905   4.113  0.8659 -0.5471  4.0231
 2195SOL     OW 6640   3.062   1.831   2.489 -0.5700  0.4609 -0.2159
 2195SOL    HW1 6641   3.076   1.828   2.394  0.9618 -1.9422  0.0033
 2195SOL    HW2 6642   3.011   1.911   2.503 -0.0687  1.3709 -2.9502
 2196SOL     OW 6643   2.969   4.524   1.408  0.0054  0.2529  0.1991
 2196SOL    HW1 6644   2.958   4.592   1.474  1.2905  0.2817  0.4082
 2196SOL    HW2 6645   2.999   4.571   1.330 -1.2572  0.1872 -0.3529
 2197SOL     OW 6646   0.991   0.833   4.407 -0.3893 -0.5244  0.8830
 2197SOL    HW1 6647   0.943   0.792   4.335  0.8829  0.8456 -0.8771
 2197SOL    HW2 6648   0.946   0.917   4.421  0.4114  0.0147  0.3746
 2198SOL     OW 6649   0.023   1.142   4.522 -0.0616  0.4022 -0.0904
 2198SOL    HW1 6650   0.089   1.081   4.488 -1.9777 -1.7679 -0.1905
 2198SOL    HW2 6651  -0.006   1.102   4.604 -1.6033  1.0035 -0.3170
 2199SOL     OW 6652   1.256   0.419   0.176 -0.3099 -0.0603 -0.0338
 2199SOL    HW1 6653   1.204   0.340   0.189 -1.0971  0.1755 -1.5069
 2199SOL    HW2 6654   1.315   0.422   0.251  0.5643 -2.6689 -0.5403
 2200SOL     OW 6655   1.889   4.932   4.098  0.4400  0.2068 -0.6137
 2200SOL    HW1 6656   1.970   4.884   4.081 -0.1222 -0.7967 -0.5668
 2200SOL    HW2 6657   1.831   4.867   4.138 -0.3752  0.9124 -0.6272
 2201SOL     OW 6658   3.855   1.821   1.298  0.3723 -0.1851  0.8787
 2201SOL    HW1 6659   3.951   1.827   1.294  0.7543 -4.1876 -1.3445
 2201SOL    HW2 6660   3.825   1.864   1.218  0.7902 -2.8124 -0.7794
 2202SOL     OW 6661   2.566   0.387   3.445  0.6130  0.5945  0.0227
 2202SOL    HW1 6662   2.582   0.297   3.474 -0.4574  0.5504  0.5234
 2202SOL    HW2 6663   2.472   0.390   3.428  1.0085  0.9499 -2.3707
 2203SOL     OW 6664   0.093   1.986   4.348 -0.1261 -0.3645  0.0169
 2203SOL    HW1 6665   0.032   1.941   4.290  0.0575  1.0529 -1.3525
 2203SOL    HW2 6666   0.043   1.999   4.429 -1.0925 -0.6664 -0.5069
 2204SOL     OW 6667   0.139   1.530   4.786  0.2681 -1.1391 -0.4624
 2204SOL    HW1 6668   0.064   1.499   4.735  0.1354 -1.2649 -0.1909
 2204SOL    HW2 6669   0.169   1.454   4.835 -0.6585 -0.6370  0.9499
 2205SOL     OW 6670   3.549   2.608  -0.005  0.2331  0.3930 -0.8895
 2205SOL    HW1 6671   3.479   2.592   0.058  0.1054 -0.1789 -1.1695
 2205SOL    HW2 6672   3.619   2.647   0.047 -0.2280  0.8112 -0.5742
 2206SOL     OW 6673   0.360   1.847   4.066 -0.2880 -1.0096  0.0138
 2206SOL    HW1 6674   0.413   1.768   4.058  1.2127  0.0673 -1.2846
 2206SOL    HW2 6675   0.383   1.900   3.989 -0.1762  1.3200  1.5313
 2207SOL     OW 6676   0.926   0.571   2.801 -0.6290  0.0232  0.4225
 2207SOL    HW1 6677   0.947   0.483   2.770 -1.1059 -0.3058  1.0235
 2207SOL    HW2 6678   0.855   0.600   2.745 -0.5888 -0.0387  0.3384
 2208SOL     OW 6679   1.244   2.991   3.792 -0.3824  0.8131  0.0556
 2208SOL    HW1 6680   1.279   2.904   3.810  0.2957  1.4365  1.9877
 2208SOL    HW2 6681   1.154   2.988   3.824  0.1891  1.3111  1.7950
 2209SOL     OW 6682   0.476   3.205   0.292 -0.0593 -0.4948 -0.1197
 2209SOL    HW1 6683   0.402   3.244   0.339  1.8890  2.5164  0.7450
 2209SOL    HW2 6684   0.517   3.147   0.357  0.7262  1.1437  0.9276
 2210SOL     OW 6685   1.586   4.279   0.358  0.2355 -0.5191  0.1937
 2210SOL    HW1 6686   1.591   4.187   0.330  1.2381 -0.2992 -0.4179
 2210SOL    HW2 6687   1.677   4.308   0.358  0.2346 -0.2679  2.9955
 2211SOL     OW 6688   4.225   4.007   0.851 -0.0281 -0.4535  0.1712
 2211SOL    HW1 6689   4.319   4.018   0.842 -0.2024  0.8132 -0.2718
 2211SOL    HW2 6690   4.211   3.998   0.946  0.4205  0.5974  0.3468
 2212SOL     OW 6691   0.272   0.202   1.199 -0.0088  0.1628  0.2536
 2212SOL    HW1 6692   0.273   0.286   1.243  0.6521  0.0829  0.3942
 2212SOL    HW2 6693   0.209   0.150   1.248 -2.0140  1.2216 -1.0688
 2213SOL     OW 6694   0.847   1.983   1.747 -0.4632  0.2103 -0.0924
 2213SOL    HW1 6695   0.849   1.986   1.842  1.2689 -0.2098 -0.0762
 2213SOL    HW2 6696   0.938   1.965   1.722 -0.7264  1.1420 -1.8571
 2214SOL     OW 6697   4.386   0.069   1.219  0.0848  0.1838  0.5819
 2214SOL    HW1 6698   4.354   0.035   1.135 -0.0559  1.1821  0.2208
 2214SOL    HW2 6699   4.387   0.164   1.208  1.4599  0.2697  1.2024
 2215SOL     OW 6700   0.105   4.843   3.370  0.3352 -0.3203 -0.4267
 2215SOL    HW1 6701   0.198   4.836   3.394  0.4427  0.8820 -0.3810
 2215SOL    HW2 6702   0.063   4.882   3.446  0.6170  3.1746 -1.8528
 2216SOL     OW 6703   0.332   4.617   2.650  0.0495  0.2419  0.0475
 2216SOL    HW1 6704   0.305   4.700   2.610  0.0005 -0.1626 -0.7704
 2216SOL    HW2 6705   0.262   4.595   2.710  0.5585  1.3334  1.0852
 2217SOL     OW 6706   0.880   4.074   4.228 -0.5347  0.5098  0.3158
 2217SOL    HW1 6707   0.955   4.090   4.285 -0.2018 -0.1590  0.0773
 2217SOL    HW2 6708   0.897   3.988   4.190 -1.2880  0.4764  0.0449
 2218SOL     OW 6709   3.374   0.912   1.317 -0.3227 -0.7922  0.1599
 2218SOL    HW1 6710   3.318   0.860   1.374 -0.6166 -2.9298 -1.9181
 2218SOL    HW2 6711   3.317   0.938   1.244  0.2169  1.2345  0.3931
 2219SOL     OW 6712   2.821   4.582   1.926  1.3007  0.1801 -0.2833
 2219SOL    HW1 6713   2.805   4.651   1.862 -0.9419 -0.4488 -0.4750
 2219SOL    HW2 6714   2.786   4.503   1.885  3.1376 -0.9698  0.2422
 2220SOL     OW 6715   0.148   3.550   3.728  0.4094 -0.2186 -1.0633
 2220SOL    HW1 6716   0.214   3.612   3.758  1.7899 -1.0625 -2.2147
 2220SOL    HW2 6717   0.199   3.479   3.688 -1.1472 -1.6764 -0.5584
 2221SOL     OW 6718   0.805   1.630   0.035 -0.2089  0.2708 -0.1006
 2221SOL    HW1 6719   0.765   1.657  -0.048 -0.6199  0.6671  0.2203
 2221SOL    HW2 6720   0.803   1.709   0.089  1.6043  0.4851 -0.2814
 2222SOL     OW 6721   2.200   3.086   4.421  0.4537  0.1425 -0.1604
 2222SOL    HW1 6722   2.195   3.029   4.498  0.0214 -0.7047 -0.8023
 2222SOL    HW2 6723   2.161   3.168   4.449  0.8931  0.0678  0.7189
 2223SOL     OW 6724   1.575   4.002   1.550  0.0113  0.0856  0.7676
 2223SOL    HW1 6725   1.481   3.983   1.558 -0.3220  1.7322  1.2502
 2223SOL    HW2 6726   1.601   4.030   1.638  0.9448 -0.3246  0.6222
 2224SOL     OW 6727   2.846   0.433   2.254  0.3272  0.4700 -0.0686
 2224SOL    HW1 6728   2.937   0.429   2.285  0.2331  0.6648  0.2385
 2224SOL    HW2 6729   2.799   0.370   2.308  0.6176 -1.0094 -1.4616
 2225SOL     OW 6730   0.200   4.378   1.849 -0.1905  0.2672  0.1736
 2225SOL    HW1 6731   0.218   4.284   1.851  1.2205  0.4632 -1.1794
 2225SOL    HW2 6732   0.198   4.405   1.941 -0.5195 -1.0555  0.5670
 2226SOL     OW 6733   4.727   4.312   1.209 -0.0450  0.2036 -0.0957
 2226SOL    HW1 6734   4.675   4.256   1.152 -0.6241 -0.4081  0.9958
 2226SOL    HW2 6735   4.763   4.379   1.151  0.9549 -1.4749 -1.5099
 2227SOL     OW 6736   4.879   3.361   4.500 -0.0144  0.1353  0.1923
 2227SOL    HW1 6737   4.823   3.420   4.550 -0.1897  0.5028 -0.4232
 2227SOL    HW2 6738   4.824   3.333   4.426  0.9596  1.3941 -1.0690
 2228SOL     OW 6739   4.340   0.232   2.734 -0.5233  0.2027 -0.0366
 2228SOL    HW1 6740   4.260   0.284   2.730 -0.0570  0.8877 -1.2997
 2228SOL    HW2 6741   4.410   0.297   2.739 -0.0399 -0.3852  1.0665
 2229SOL     OW 6742   0.692   4.451   0.975  0.7808 -0.0100  0.2905
 2229SOL    HW1 6743   0.744   4.483   0.902  0.1577  1.2484  0.3650
 2229SOL    HW2 6744   0.603   4.441   0.939 -0.3462  3.7916  1.5235
 2230SOL     OW 6745   3.982   3.067   4.939  0.2919 -0.6948  0.0661
 2230SOL    HW1 6746   3.923   3.140   4.957  1.6961  1.3032 -2.6702
 2230SOL    HW2 6747   3.976   3.053   4.844  1.6912 -2.7160  0.1963
 2231SOL     OW 6748   3.416   0.891   2.209  0.6248  0.3930 -0.2378
 2231SOL    HW1 6749   3.498   0.928   2.177 -0.0512  1.8752 -0.3356
 2231SOL    HW2 6750   3.428   0.884   2.304  1.0503  0.1042 -0.3118
 2232SOL     OW 6751   2.446   0.051   2.129  0.1697  0.0886  0.0742
 2232SOL    HW1 6752   2.368  -0.002   2.111 -0.7112  1.5692 -0.7242
 2232SOL    HW2 6753   2.441   0.070   2.222 -0.5662  0.3493 -0.0103
 2233SOL     OW 6754   2.143   1.437   1.945 -0.4996  0.0205  0.0762
 2233SOL    HW1 6755   2.113   1.462   1.857  0.4779  1.0341 -0.0026
 2233SOL    HW2 6756   2.160   1.521   1.988  5.5927 -0.1595 -1.0961
 2234SOL     OW 6757   4.167   4.553   0.896 -0.1066 -0.9172  0.4320
 2234SOL    HW1 6758   4.262   4.554   0.891  0.0496 -0.2565  2.5330
 2234SOL    HW2 6759   4.147   4.590   0.981 -2.2980 -0.0324 -0.3856
 2235SOL     OW 6760   1.734   2.256   3.700  0.1890 -0.0111 -0.0547
 2235SOL    HW1 6761   1.811   2.287   3.748  0.8912 -2.2558  0.4130
 2235SOL    HW2 6762   1.684   2.205   3.764 -1.6457  1.2815 -0.3985
 2236SOL     OW 6763   4.707   4.695   2.666 -0.1424 -0.4602 -0.1349
 2236SOL    HW1 6764   4.652   4.773   2.654  0.7976  0.3146  0.4900
 2236SOL    HW2 6765   4.738   4.674   2.578 -0.5604 -0.2442 -0.3365
 2237SOL     OW 6766   0.923   0.231   2.096  0.1963  0.1161  0.5695
 2237SOL    HW1 6767   0.937   0.203   2.187  1.5254  2.5949  1.2254
 2237SOL    HW2 6768   0.993   0.189   2.047  0.6873  0.3288  1.0742
 2238SOL     OW 6769   1.243   4.735   1.310  0.2711 -0.5495 -0.0559
 2238SOL    HW1 6770   1.333   4.767   1.299  0.3101 -0.2034  1.1667
 2238SOL    HW2 6771   1.192   4.786   1.247  0.7819 -0.1064 -0.1236
 2239SOL     OW 6772   0.124   4.570   2.804  0.2829 -0.6128  0.1105
 2239SOL    HW1 6773   0.105   4.485   2.764  1.0673 -0.6787 -0.1359
 2239SOL    HW2 6774   0.128   4.553   2.898 -2.4300 -0.3054  0.3806
 2240SOL     OW 6775   0.023   1.714   1.104  0.4172 -0.2553 -0.7067
 2240SOL    HW1 6776  -0.063   1.724   1.143  0.9775  0.0155  0.4972
 2240SOL    HW2 6777   0.067   1.798   1.119  0.7621 -0.2391 -1.6738
 2241SOL     OW 6778   3.250   3.936   0.590 -0.8256  0.1889  0.1168
 2241SOL    HW1 6779   3.227   3.978   0.674  2.2108  0.4801  0.9273
 2241SOL    HW2 6780   3.171   3.944   0.537 -1.6900  3.4305  1.6239
 2242SOL     OW 6781   3.901   3.680   4.042  0.2270  1.0432 -0.2281
 2242SOL    HW1 6782   3.918   3.597   3.998  1.0941 -0.0076  1.9139
 2242SOL    HW2 6783   3.806   3.690   4.038  0.0941 -0.1543 -0.3707
 2243SOL     OW 6784   0.921   1.052   1.749  0.4353  0.5338 -0.6960
 2243SOL    HW1 6785   0.928   1.081   1.839  0.4479  0.9317 -0.8238
 2243SOL    HW2 6786   0.956   1.124   1.697  1.5036 -0.1589 -0.9625
 2244SOL     OW 6787   4.798   2.442   4.328  0.0959 -0.1113  0.0883
 2244SOL    HW1 6788   4.726   2.380   4.314 -0.7071  0.3593  1.8171
 2244SOL    HW2 6789   4.875   2.386   4.341 -0.1537 -0.6600 -0.7345
 2245SOL     OW 6790   1.771   1.477   1.416 -0.2035  0.0488  1.2263
 2245SOL    HW1 6791   1.849   1.422   1.411 -1.5213 -1.8394 -0.0579
 2245SOL    HW2 6792   1.784   1.544   1.348  0.6242  0.2548  1.5759
 2246SOL     OW 6793   0.535   1.670   1.816  0.9586  0.0682 -0.0924
 2246SOL    HW1 6794   0.595   1.714   1.755  0.6357 -0.0569 -0.5080
 2246SOL    HW2 6795   0.450   1.676   1.774  0.4720  1.2033  1.0051
 2247SOL     OW 6796   1.113   1.888   2.947 -0.1049 -0.1215  0.2037
 2247SOL    HW1 6797   1.130   1.794   2.950  1.7665  0.1744  3.0619
 2247SOL    HW2 6798   1.198   1.927   2.927 -0.9293  0.9954 -1.3134
 2248SOL     OW 6799   4.977   1.224   4.839  0.5460 -0.3307  0.0444
 2248SOL    HW1 6800   4.890   1.226   4.800  0.4306  1.0290  0.3351
 2248SOL    HW2 6801   4.966   1.267   4.924  1.6269  0.5240 -0.2249
 2249SOL     OW 6802   2.335   0.341   4.494  0.0959 -0.7124  0.1426
 2249SOL    HW1 6803   2.413   0.376   4.537  0.8246  0.6896 -2.1553
 2249SOL    HW2 6804   2.271   0.333   4.564  1.0606  1.8422  1.4517
 2250SOL     OW 6805   1.814   1.391   0.637  0.2104  0.3678  0.4929
 2250SOL    HW1 6806   1.780   1.424   0.554  0.4002  0.3903  0.4249
 2250SOL    HW2 6807   1.864   1.464   0.673  0.4968  0.2059  0.4176
 2251SOL     OW 6808   2.926   3.294   1.833  0.0131 -0.0009 -0.0337
 2251SOL    HW1 6809   2.972   3.236   1.772  0.2577  0.0413  0.1122
 2251SOL    HW2 6810   2.981   3.296   1.911 -0.4888 -0.3482  0.3322
 2252SOL     OW 6811   0.763   0.394   3.816 -0.0476 -0.1903 -0.0451
 2252SOL    HW1 6812   0.742   0.459   3.884  0.5566 -0.1103  0.0756
 2252SOL    HW2 6813   0.817   0.329   3.862  0.7844  0.1266 -0.5603
 2253SOL     OW 6814   4.409   1.806   3.412  0.2397 -0.0493  0.4170
 2253SOL    HW1 6815   4.472   1.769   3.473  0.4945  0.0765  0.2307
 2253SOL    HW2 6816   4.461   1.861   3.353 -0.4404  3.4408  2.7479
 2254SOL     OW 6817   2.785   3.737   0.285 -0.0197 -0.1386 -0.2836
 2254SOL    HW1 6818   2.742   3.710   0.367 -0.0169 -0.3158 -0.3401
 2254SOL    HW2 6819   2.715   3.773   0.231  0.2517  1.7370  0.5107
 2255SOL     OW 6820   2.691   4.112   1.084 -0.1106 -0.0708  0.1555
 2255SOL    HW1 6821   2.781   4.141   1.102 -0.0160 -1.9324  3.4703
 2255SOL    HW2 6822   2.637   4.167   1.141 -1.1657  0.9441 -1.7172
 2256SOL     OW 6823   3.946   1.519   2.714  0.0187 -0.2065  0.4528
 2256SOL    HW1 6824   3.902   1.435   2.725  0.7879 -0.3185  3.4062
 2256SOL    HW2 6825   3.876   1.581   2.692 -0.7833 -1.3057 -0.1697
 2257SOL     OW 6826   0.112   1.807   2.618  0.5220 -0.3945  0.1821
 2257SOL    HW1 6827   0.075   1.773   2.700  0.5684  0.9431  0.7852
 2257SOL    HW2 6828   0.036   1.831   2.565  0.5040 -0.6460  0.0893
 2258SOL     OW 6829   3.305   2.504   0.550 -0.1488  0.1768 -0.0839
 2258SOL    HW1 6830   3.211   2.512   0.536 -0.3030 -1.9564 -0.6339
 2258SOL    HW2 6831   3.343   2.576   0.500 -1.4107 -0.0683 -1.4814
 2259SOL     OW 6832   0.591   3.214   2.378 -0.3013  0.0393 -0.0898
 2259SOL    HW1 6833   0.495   3.211   2.378 -0.3133 -0.2964  1.1790
 2259SOL    HW2 6834   0.617   3.141   2.434  0.5851  1.9753  2.2063
 2260SOL     OW 6835   0.531   1.777   2.518 -0.5710 -0.2735 -0.1936
 2260SOL    HW1 6836   0.441   1.765   2.487 -0.5296  1.5741 -1.1684
 2260SOL    HW2 6837   0.584   1.774   2.438 -0.0653  1.0361  0.0617
 2261SOL     OW 6838   2.127   1.316   1.145 -0.2149  0.0311  0.0664
 2261SOL    HW1 6839   2.120   1.408   1.120  0.1351 -0.0443 -0.3185
 2261SOL    HW2 6840   2.219   1.295   1.133  0.1407  0.1959  2.1629
 2262SOL     OW 6841   2.247   2.157   1.429  0.4097  0.0463  0.1875
 2262SOL    HW1 6842   2.286   2.124   1.510  2.1633  0.5288 -0.4058
 2262SOL    HW2 6843   2.159   2.119   1.427  1.6775 -3.2331  0.3609
 2263SOL     OW 6844   0.101   2.904   3.151 -0.1703  0.1337  0.0979
 2263SOL    HW1 6845   0.116   2.909   3.246 -1.3354 -0.2984  0.3232
 2263SOL    HW2 6846   0.160   2.834   3.121 -0.1781 -0.0873  0.5873
 2264SOL     OW 6847   3.412   0.621   3.843 -0.4428 -0.1080  0.2005
 2264SOL    HW1 6848   3.392   0.704   3.800  0.1132  0.4602  1.0285
 2264SOL    HW2 6849   3.447   0.645   3.929 -3.2171 -1.2210  1.7781
 2265SOL     OW 6850   3.597   0.658   4.328 -0.2758  0.3580 -0.1851
 2265SOL    HW1 6851   3.563   0.612   4.252 -1.2840  0.2673  0.3048
 2265SOL    HW2 6852   3.549   0.622   4.402  0.7898  0.3446  0.5237
 2266SOL     OW 6853   1.047   1.351   3.023  0.3082  0.1648 -0.5754
 2266SOL    HW1 6854   1.081   1.298   3.096  3.9785  1.3805 -1.2239
 2266SOL    HW2 6855   1.085   1.311   2.945 -0.0385  1.4574 -1.4303
 2267SOL     OW 6856   4.417   4.285   0.923 -0.2747  0.6340  0.1459
 2267SOL    HW1 6857   4.430   4.192   0.938  2.3182  0.8248 -0.3658
 2267SOL    HW2 6858   4.358   4.313   0.992  1.9175 -0.6840  2.7213
 2268SOL     OW 6859   1.306   2.560   4.086  0.2058 -0.5718 -0.1971
 2268SOL    HW1 6860   1.312   2.587   3.994 -0.4996  0.5337  0.0610
 2268SOL    HW2 6861   1.241   2.490   4.086 -1.0413  0.5511 -0.3348
 2269SOL     OW 6862   0.835   4.563   3.876 -0.4476  0.1104  0.0014
 2269SOL    HW1 6863   0.844   4.478   3.920  0.5513 -0.7869 -1.8440
 2269SOL    HW2 6864   0.916   4.610   3.898  0.0750 -0.3579 -0.8833
 2270SOL     OW 6865   1.519   4.601   2.806  0.8635 -0.3710  0.2017
 2270SOL    HW1 6866   1.467   4.636   2.733  0.0227  0.0581  0.9953
 2270SOL    HW2 6867   1.552   4.678   2.851 -0.3153 -0.5757  1.4718
 2271SOL     OW 6868   2.717   0.290   3.833  1.3248 -0.4527 -0.3949
 2271SOL    HW1 6869   2.784   0.355   3.854  0.2281  0.5644  0.1186
 2271SOL    HW2 6870   2.646   0.309   3.895 -0.0523 -0.4832 -1.9027
 2272SOL     OW 6871   2.247   2.718   0.843 -0.6384  0.3655  0.5550
 2272SOL    HW1 6872   2.267   2.649   0.907  0.3668 -0.9637 -1.0942
 2272SOL    HW2 6873   2.172   2.684   0.794 -1.0543  1.1150  0.6605
 2273SOL     OW 6874   0.635   0.948   2.120  0.3505 -0.4943 -0.3871
 2273SOL    HW1 6875   0.724   0.975   2.094  0.4941  0.4749  1.0424
 2273SOL    HW2 6876   0.596   1.027   2.156 -1.7152 -0.4623 -2.4522
 2274SOL     OW 6877   0.669   2.789   3.378 -0.1660  0.4519 -0.0526
 2274SOL    HW1 6878   0.667   2.876   3.339 -1.3505 -0.4087 -2.0648
 2274SOL    HW2 6879   0.578   2.768   3.395  0.2168  0.1709  1.8642
 2275SOL     OW 6880   0.028   2.716   2.353  0.2840 -0.3191  0.3107
 2275SOL    HW1 6881   0.035   2.680   2.441 -1.3857 -0.2456  0.5187
 2275SOL    HW2 6882  -0.015   2.801   2.365 -0.8055 -0.6984 -0.6151
 2276SOL     OW 6883   2.532   3.958   3.357  0.1846 -0.0800 -0.1040
 2276SOL    HW1 6884   2.544   3.895   3.429 -1.1923  0.8691  1.0230
 2276SOL    HW2 6885   2.483   4.030   3.397 -0.9782  0.2982 -2.0973
 2277SOL     OW 6886   2.961   4.567   3.037 -0.2890  0.2559  0.0227
 2277SOL    HW1 6887   3.014   4.630   2.989 -1.0367 -0.8906 -2.4529
 2277SOL    HW2 6888   3.015   4.488   3.042 -0.7507 -0.0774 -0.1635
 2278SOL     OW 6889   4.222   2.826   0.755 -0.7218  0.1563  0.1957
 2278SOL    HW1 6890   4.289   2.778   0.804 -0.3473 -0.1973 -0.6336
 2278SOL    HW2 6891   4.199   2.768   0.683 -0.2296  1.2212 -0.8542
 2279SOL     OW 6892   2.747   2.814   0.225 -0.5029  0.3729  0.6478
 2279SOL    HW1 6893   2.842   2.805   0.234 -0.5074 -0.8296 -0.2294
 2279SOL    HW2 6894   2.710   2.764   0.298 -0.4568  0.1529  0.5228
 2280SOL     OW 6895   4.428   1.009   2.444 -0.0604 -0.2433 -0.3239
 2280SOL    HW1 6896   4.427   1.004   2.540  3.1077 -1.3133 -0.2304
 2280SOL    HW2 6897   4.431   1.102   2.425 -0.4411 -0.0260  0.6021
 2281SOL     OW 6898   1.076   0.754   1.082 -0.0283 -0.0487 -0.2938
 2281SOL    HW1 6899   1.127   0.686   1.038 -0.0776  0.1243 -0.6182
 2281SOL    HW2 6900   1.117   0.836   1.056  0.2692  0.0327  0.3992
 2282SOL     OW 6901   0.853   0.841   0.490  0.9771  0.2673 -0.0822
 2282SOL    HW1 6902   0.851   0.750   0.462  0.4347  0.6529 -1.3725
 2282SOL    HW2 6903   0.763   0.872   0.480  0.7878  0.4794  2.0130
 2283SOL     OW 6904   2.551   0.674   2.438  0.1813 -0.2742  0.2183
 2283SOL    HW1 6905   2.578   0.763   2.460  0.3013 -0.3634  0.4340
 2283SOL    HW2 6906   2.521   0.636   2.521 -2.9577  0.6074 -0.3875
 2284SOL     OW 6907   3.931   4.903   0.905  0.6566 -0.2250 -0.1608
 2284SOL    HW1 6908   3.848   4.950   0.900  0.6853 -0.2515 -1.0658
 2284SOL    HW2 6909   3.914   4.829   0.963  0.5957  0.8583  1.2631
 2285SOL     OW 6910   4.898   3.424   1.889 -0.2917 -0.1797  0.8190
 2285SOL    HW1 6911   4.893   3.507   1.938  0.3038 -0.7409  1.8911
 2285SOL    HW2 6912   4.840   3.365   1.937 -1.5374 -0.1147 -0.5604
 2286SOL     OW 6913   2.975   1.480   4.303 -0.3754  0.0753  0.1629
 2286SOL    HW1 6914   2.999   1.568   4.275 -1.6279  0.6714  0.8591
 2286SOL    HW2 6915   2.880   1.483   4.313 -0.3704 -1.1537  0.8930
 2287SOL     OW 6916   4.807   3.209   3.919  0.2429 -0.4697 -0.6929
 2287SOL    HW1 6917   4.712   3.210   3.913  0.2971  0.7520 -1.8143
 2287SOL    HW2 6918   4.833   3.300   3.902  1.5871 -0.6826  0.0769
 2288SOL     OW 6919   2.362   2.913   1.492  0.4912 -0.4833  0.2381
 2288SOL    HW1 6920   2.445   2.951   1.520 -0.4348  0.9330  1.2117
 2288SOL    HW2 6921   2.386   2.828   1.454  2.2212 -0.7731  1.8286
 2289SOL     OW 6922   3.671   0.467   3.050 -0.0822  0.2095 -0.5232
 2289SOL    HW1 6923   3.766   0.459   3.058  0.2688  2.4878 -1.4436
 2289SOL    HW2 6924   3.645   0.519   3.126 -0.6342 -0.4784 -0.2277
 2290SOL     OW 6925   0.207   2.376   0.622 -0.2514  0.0848  0.2405
 2290SOL    HW1 6926   0.284   2.388   0.566 -1.3790  0.3959 -1.3131
 2290SOL    HW2 6927   0.227   2.299   0.675  0.8588 -0.2419 -0.6214
 2291SOL     OW 6928   0.256   3.664   3.982 -0.6942  0.0537 -0.0715
 2291SOL    HW1 6929   0.333   3.615   4.012 -0.5963 -0.1765 -0.6837
 2291SOL    HW2 6930   0.194   3.657   4.054 -0.1750  0.1726  0.3975
 2292SOL     OW 6931   2.635   4.364   4.177 -0.4545  0.7018  0.2703
 2292SOL    HW1 6932   2.639   4.374   4.082 -2.4417 -1.0520 -0.0745
 2292SOL    HW2 6933   2.709   4.307   4.198 -0.3545  0.6002 -0.3341
 2293SOL     OW 6934   3.526   3.012   4.768  0.1479 -0.4796  0.2773
 2293SOL    HW1 6935   3.482   3.066   4.834 -0.1424  1.8950 -1.7106
 2293SOL    HW2 6936   3.588   3.072   4.725  1.0280 -2.1806 -0.9662
 2294SOL     OW 6937   3.371   3.481   3.795 -0.1954 -0.3841 -0.1467
 2294SOL    HW1 6938   3.371   3.475   3.891  3.8402  1.6900  0.1651
 2294SOL    HW2 6939   3.395   3.393   3.766  1.8109 -0.2633  0.9895
 2295SOL     OW 6940   1.172   2.271   2.936  0.1217 -0.8277  0.1483
 2295SOL    HW1 6941   1.254   2.316   2.956  0.5200 -1.6670  0.4664
 2295SOL    HW2 6942   1.123   2.273   3.018  1.0394 -2.7864  0.8121
 2296SOL     OW 6943   0.415   1.536   1.306 -0.8615  0.3989 -0.1434
 2296SOL    HW1 6944   0.349   1.518   1.373  0.3806 -0.5891  0.8758
 2296SOL    HW2 6945   0.499   1.520   1.350  0.1150  2.1101 -1.2341
 2297SOL     OW 6946   0.746   0.083   3.123 -0.0448 -0.7042  0.6271
 2297SOL    HW1 6947   0.828   0.117   3.087 -0.2691 -1.3990 -0.6220
 2297SOL    HW2 6948   0.772   0.005   3.173  0.0940 -0.7435  0.4935
 2298SOL     OW 6949   0.381   4.661   0.236 -0.1718 -0.3313 -0.4781
 2298SOL    HW1 6950   0.319   4.668   0.164 -0.1145  0.8887 -0.4304
 2298SOL    HW2 6951   0.327   4.665   0.315 -0.0859  0.3260 -0.4430
 2299SOL     OW 6952   3.852   2.703   1.103 -0.3757 -0.4421 -0.0956
 2299SOL    HW1 6953   3.874   2.714   1.011 -0.9972  1.9460 -0.0049
 2299SOL    HW2 6954   3.936   2.687   1.146  1.2699  5.5792 -0.1621
 2300SOL     OW 6955   3.925   1.094   3.509  0.2821 -0.1089 -0.0583
 2300SOL    HW1 6956   4.018   1.071   3.503  0.3875 -0.6571  2.4514
 2300SOL    HW2 6957   3.879   1.010   3.507  0.2330 -0.2762  2.9448
 2301SOL     OW 6958   1.805   2.862   3.768  0.5088  0.1243  0.2762
 2301SOL    HW1 6959   1.761   2.916   3.833  1.6462 -0.4643  1.5857
 2301SOL    HW2 6960   1.888   2.907   3.753  0.7137 -0.3289  0.0503
 2302SOL     OW 6961   1.725   2.764   2.420 -0.0932 -0.2660  0.1888
 2302SOL    HW1 6962   1.813   2.783   2.389 -0.5343  1.3523 -0.2074
 2302SOL    HW2 6963   1.732   2.763   2.516  0.1185  1.4336  0.2287
 2303SOL     OW 6964   0.457   2.361   1.224  0.3435  0.1232 -0.0314
 2303SOL    HW1 6965   0.504   2.407   1.294  0.8541 -1.4469  0.7115
 2303SOL    HW2 6966   0.526   2.331   1.165 -0.1015  1.6366 -1.3921
 2304SOL     OW 6967   0.128   1.193   3.942 -0.2790 -0.8024 -0.2955
 2304SOL    HW1 6968   0.037   1.217   3.964  0.5177  2.4005  0.1014
 2304SOL    HW2 6969   0.123   1.153   3.856 -2.1966 -2.1812  0.3873
 2305SOL     OW 6970   2.068   4.203   0.545  0.9045 -0.3906  0.2767
 2305SOL    HW1 6971   2.052   4.121   0.497 -1.2096  1.3982 -2.3921
 2305SOL    HW2 6972   2.144   4.242   0.500  0.1351  0.3898 -0.3721
 2306SOL     OW 6973   0.527   3.419   1.175  0.1575  0.5321  0.4886
 2306SOL    HW1 6974   0.471   3.348   1.145 -0.4955  1.0252  0.5100
 2306SOL    HW2 6975   0.549   3.396   1.266 -1.2095  1.0410  0.9705
 2307SOL     OW 6976   4.066   2.272   2.418 -0.1531 -0.4703  0.5270
 2307SOL    HW1 6977   4.155   2.306   2.418  0.1909 -1.3060  1.5928
 2307SOL    HW2 6978   4.048   2.253   2.326 -0.1858  2.0307 -0.0325
 2308SOL     OW 6979   3.316   3.121   3.234  0.1811 -0.4062  0.0838
 2308SOL    HW1 6980   3.230   3.098   3.199  0.1295 -0.9588  0.5606
 2308SOL    HW2 6981   3.302   3.130   3.328  0.3782  0.7843  0.0254
 2309SOL     OW 6982   1.993   1.272   2.862  0.2636  0.0448  0.3318
 2309SOL    HW1 6983   2.035   1.323   2.793 -2.3037  2.5736  0.4315
 2309SOL    HW2 6984   2.028   1.308   2.943  2.0911 -1.8405  0.4530
 2310SOL     OW 6985   2.583   2.222   1.738 -0.2014  0.4386  0.2738
 2310SOL    HW1 6986   2.552   2.268   1.660  1.3668  1.2194  0.0780
 2310SOL    HW2 6987   2.678   2.218   1.728 -0.1994 -2.4436  0.5309
 2311SOL     OW 6988   1.226   3.716   1.603  0.3882  0.6988 -0.1819
 2311SOL    HW1 6989   1.241   3.639   1.548 -1.0476  0.5636 -0.4283
 2311SOL    HW2 6990   1.171   3.684   1.674 -1.7818  1.8177 -1.2510
 2312SOL     OW 6991   1.671   4.324   3.958  0.6863  0.4628  0.6647
 2312SOL    HW1 6992   1.647   4.373   3.880  0.9004  0.1753  0.4196
 2312SOL    HW2 6993   1.720   4.386   4.012  0.6374  0.6245  0.5215
 2313SOL     OW 6994   1.170   4.022   0.263  0.2210 -0.5698  0.3470
 2313SOL    HW1 6995   1.225   4.000   0.338 -1.3775  0.0450  1.7840
 2313SOL    HW2 6996   1.168   4.118   0.262  1.5307 -0.5126 -1.5441
 2314SOL     OW 6997   4.917   1.524   0.443 -0.0092  0.2069 -0.0308
 2314SOL    HW1 6998   4.866   1.473   0.506 -1.3156 -0.5934 -1.6546
 2314SOL    HW2 6999   4.853   1.551   0.377  1.5324 -0.2761 -1.8156
 2315SOL     OW 7000   4.891   0.322   1.481 -0.0381 -0.1276  0.2413
 2315SOL    HW1 7001   4.816   0.381   1.489 -0.1260 -0.0318 -1.1363
 2315SOL    HW2 7002   4.908   0.293   1.571 -1.2062  0.4828  0.6784
 2316SOL     OW 7003   1.909   0.197   2.752  0.5917  0.2153 -0.4396
 2316SOL    HW1 7004   1.815   0.208   2.736  0.5707  3.0577  0.9638
 2316SOL    HW2 7005   1.916   0.112   2.795 -1.5201  0.4312  0.4701
 2317SOL     OW 7006   4.385   4.564   0.123 -0.0151 -0.2610 -0.0684
 2317SOL    HW1 7007   4.424   4.501   0.062 -1.3254 -1.1650 -0.0239
 2317SOL    HW2 7008   4.306   4.595   0.078  0.0562  0.5512  0.3557
 2318SOL     OW 7009   4.878   3.882   4.051  0.0408  0.4960  0.4714
 2318SOL    HW1 7010   4.854   3.924   3.969  1.1290 -1.1910 -0.7993
 2318SOL    HW2 7011   4.802   3.893   4.108 -0.8825  1.3856 -0.8868
 2319SOL     OW 7012   4.683   4.988   3.689  0.5937  0.0206  0.0214
 2319SOL    HW1 7013   4.593   4.972   3.717  0.2445  1.1950 -0.3878
 2319SOL    HW2 7014   4.736   4.930   3.744 -0.3305  0.0000  0.9125
 2320SOL     OW 7015   3.142   0.772   0.275 -1.1999  0.0311  0.4684
 2320SOL    HW1 7016   3.141   0.685   0.315  3.5564 -0.1550  0.7851
 2320SOL    HW2 7017   3.129   0.832   0.349 -3.1666 -0.2982  0.4484
 2321SOL     OW 7018   0.603   4.056   4.784  0.1424 -0.0119 -0.2266
 2321SOL    HW1 7019   0.539   4.110   4.737 -0.2586 -1.7540 -1.7939
 2321SOL    HW2 7020   0.580   4.067   4.877 -0.3830  1.8844 -0.5446
 2322SOL     OW 7021   1.904   2.609   4.078 -0.4507 -0.5415  0.0616
 2322SOL    HW1 7022   1.851   2.598   4.000 -1.1177 -1.0266  0.5736
 2322SOL    HW2 7023   1.847   2.584   4.150  0.7175 -1.8943  0.5674
 2323SOL     OW 7024   1.836   2.624   0.085 -0.5164  0.4457  0.5437
 2323SOL    HW1 7025   1.752   2.582   0.103 -0.8225  1.1082  0.6652
 2323SOL    HW2 7026   1.832   2.648  -0.007 -0.7687  1.1662  0.7388
 2324SOL     OW 7027   4.047   3.083   3.193 -0.6590  0.5667  0.1880
 2324SOL    HW1 7028   3.977   3.019   3.202 -0.0597 -0.5616 -2.3033
 2324SOL    HW2 7029   4.119   3.034   3.152 -0.3044  2.8684 -2.1712
 2325SOL     OW 7030   3.184   1.638   3.120 -0.1520  0.8077  0.3178
 2325SOL    HW1 7031   3.210   1.726   3.090  1.6250  0.1317 -0.2667
 2325SOL    HW2 7032   3.224   1.629   3.206 -0.4297  0.5942  0.4265
 2326SOL     OW 7033   1.864   0.797   2.217 -0.4110 -0.5171 -0.3984
 2326SOL    HW1 7034   1.783   0.757   2.183  0.4412 -0.3111 -2.8839
 2326SOL    HW2 7035   1.857   0.889   2.193  0.1865 -0.3244  0.1588
 2327SOL     OW 7036   1.145   0.896   3.517 -0.2565 -0.2166  0.2328
 2327SOL    HW1 7037   1.093   0.974   3.539 -1.4605 -1.2415  1.1927
 2327SOL    HW2 7038   1.183   0.868   3.600 -1.1935 -1.5808  0.2319
 2328SOL     OW 7039   4.462   4.411   2.384 -0.3607 -0.7491 -0.4216
 2328SOL    HW1 7040   4.487   4.406   2.291 -0.5073 -0.1672 -0.4927
 2328SOL    HW2 7041   4.378   4.365   2.388 -0.7179 -0.1256 -0.7114
 2329SOL     OW 7042   1.507   2.212   4.527 -1.0329 -0.1035 -0.3085
 2329SOL    HW1 7043   1.435   2.256   4.482 -0.6750 -0.3923 -1.1832
 2329SOL    HW2 7044   1.473   2.126   4.550 -0.9485 -0.2680 -0.7912
 2330SOL     OW 7045   2.114   4.676   3.007 -0.7723 -0.0406  0.2926
 2330SOL    HW1 7046   2.020   4.663   2.994 -0.8840 -0.5898  1.4301
 2330SOL    HW2 7047   2.126   4.665   3.102  0.3421  0.6798  0.2503
 2331SOL     OW 7048   4.666   3.141   0.687  0.2022 -0.2529 -0.1321
 2331SOL    HW1 7049   4.690   3.160   0.778  1.5072 -0.1568 -0.4814
 2331SOL    HW2 7050   4.621   3.056   0.691 -0.4593  0.1235  0.6949
 2332SOL     OW 7051   1.852   2.855   4.548 -0.0480  0.2268  0.5694
 2332SOL    HW1 7052   1.924   2.793   4.537 -0.2758 -0.0374  0.5501
 2332SOL    HW2 7053   1.778   2.815   4.502 -0.2739  0.3839  0.7897
 2333SOL     OW 7054   2.895   0.214   2.465  0.0905 -0.2311 -0.0643
 2333SOL    HW1 7055   2.860   0.132   2.430  1.7888 -0.5184 -1.2676
 2333SOL    HW2 7056   2.971   0.187   2.517  0.0137  0.5107  0.4419
 2334SOL     OW 7057   2.301   1.630   0.333 -0.0862  0.1313  0.5397
 2334SOL    HW1 7058   2.285   1.722   0.316 -1.8374 -0.2085  0.1314
 2334SOL    HW2 7059   2.286   1.587   0.249  1.4780 -0.4629  0.5343
 2335SOL     OW 7060   2.799   2.660   4.150 -0.2026  0.1951 -0.0560
 2335SOL    HW1 7061   2.845   2.609   4.216  2.2527  0.7358 -1.2396
 2335SOL    HW2 7062   2.743   2.596   4.105 -0.8714 -0.4294  1.5725
 2336SOL     OW 7063   4.725   3.499   1.055  0.0812 -0.0291  0.1391
 2336SOL    HW1 7064   4.632   3.514   1.040 -0.0446 -0.6051  0.3382
 2336SOL    HW2 7065   4.734   3.497   1.150  0.7362  2.7192  0.2313
 2337SOL     OW 7066   0.314   4.742   1.779  0.1092  0.1052 -0.1968
 2337SOL    HW1 7067   0.279   4.798   1.709  1.9161 -0.8216 -1.9668
 2337SOL    HW2 7068   0.263   4.661   1.773  1.0599 -0.4411 -1.3388
 2338SOL     OW 7069   1.028   2.874   3.364  0.4367 -0.3228 -0.1097
 2338SOL    HW1 7070   1.004   2.799   3.419  1.8651 -0.0333  0.9704
 2338SOL    HW2 7071   1.030   2.948   3.424  1.0608  0.1924 -0.7487
 2339SOL     OW 7072   4.948   1.730   2.861  0.3493 -0.5070 -0.0300
 2339SOL    HW1 7073   4.980   1.682   2.937 -1.4723 -0.8862  0.5592
 2339SOL    HW2 7074   4.865   1.767   2.890 -1.0220 -1.6687 -2.1790
 2340SOL     OW 7075   3.631   0.149   2.416  0.4751 -0.1305  0.3377
 2340SOL    HW1 7076   3.718   0.144   2.376  0.0033  0.2522 -0.7480
 2340SOL    HW2 7077   3.628   0.072   2.473  1.8793  0.3575  1.1429
 2341SOL     OW 7078   2.433   1.681   0.995 -0.3168  0.0957  0.2875
 2341SOL    HW1 7079   2.440   1.674   1.091  1.4468 -0.3436  0.1564
 2341SOL    HW2 7080   2.431   1.590   0.965  0.5291  0.2203 -0.1651
 2342SOL     OW 7081   0.869   0.506   2.068 -0.0502 -0.0729 -0.1714
 2342SOL    HW1 7082   0.902   0.422   2.100 -1.7094 -0.6209  0.1931
 2342SOL    HW2 7083   0.875   0.499   1.972 -0.0951 -0.5695 -0.1400
 2343SOL     OW 7084   1.762   4.632   2.593 -0.2781 -0.2353 -0.0985
 2343SOL    HW1 7085   1.715   4.623   2.511 -1.1092  3.2621 -0.1540
 2343SOL    HW2 7086   1.696   4.618   2.661 -0.2125 -0.3673 -0.0605
 2344SOL     OW 7087   1.976   3.524   0.887  0.3947 -0.1791 -0.4611
 2344SOL    HW1 7088   1.952   3.440   0.849 -0.3269 -0.2759  0.1865
 2344SOL    HW2 7089   1.994   3.505   0.979 -1.1381  0.5759  0.0426
 2345SOL     OW 7090   1.989   2.380   0.164  0.2448 -0.0078 -0.0411
 2345SOL    HW1 7091   1.987   2.390   0.259 -3.3295 -0.8692  0.1083
 2345SOL    HW2 7092   1.957   2.464   0.130 -2.3667 -0.9436 -0.1613
 2346SOL     OW 7093   4.544   3.249   3.876  0.2494 -0.2417 -0.0867
 2346SOL    HW1 7094   4.562   3.298   3.796 -0.2060 -0.1866 -0.1560
 2346SOL    HW2 7095   4.480   3.302   3.923  0.8220 -0.0673  0.5127
 2347SOL     OW 7096   0.260   0.578   0.092 -0.1284 -0.4006 -0.4650
 2347SOL    HW1 7097   0.225   0.493   0.119 -0.8789 -0.1067 -0.4954
 2347SOL    HW2 7098   0.324   0.600   0.159 -2.2412  0.5005  1.3992
 2348SOL     OW 7099   4.228   1.233   2.214 -0.3631 -0.0510  0.0860
 2348SOL    HW1 7100   4.313   1.243   2.173 -0.8088  1.3301 -0.5553
 2348SOL    HW2 7101   4.178   1.179   2.153 -0.2812  0.0271 -0.0504
 2349SOL     OW 7102   2.727   1.801   1.751 -0.0975  0.3473 -0.2308
 2349SOL    HW1 7103   2.669   1.726   1.739 -1.2491  1.1789 -0.0520
 2349SOL    HW2 7104   2.668   1.873   1.773  0.8083  1.6979 -2.0530
 2350SOL     OW 7105   3.321   2.549   0.193  0.0263  0.1392 -0.1127
 2350SOL    HW1 7106   3.320   2.625   0.250 -1.9113  0.2129 -0.1621
 2350SOL    HW2 7107   3.291   2.477   0.249  1.7111 -0.6083 -0.0990
 2351SOL     OW 7108   3.785   1.959   0.336 -0.0352 -0.3043  0.7057
 2351SOL    HW1 7109   3.754   1.939   0.248  0.6638 -0.8215  0.5746
 2351SOL    HW2 7110   3.834   1.882   0.363  2.4690  1.0104  0.2945
 2352SOL     OW 7111   0.595   2.830   3.969 -0.0711  0.3219 -0.5432
 2352SOL    HW1 7112   0.643   2.749   3.951  1.1983  0.6359  1.1894
 2352SOL    HW2 7113   0.638   2.867   4.046 -1.8653  1.6708 -0.1270
 2353SOL     OW 7114   4.478   2.936   0.408  0.0157 -0.3093 -0.2124
 2353SOL    HW1 7115   4.541   2.970   0.472  1.2455 -0.3224 -1.3740
 2353SOL    HW2 7116   4.478   3.001   0.337 -0.8408 -0.6098 -0.5068
 2354SOL     OW 7117   3.171   3.340   0.285  0.0240  0.2344  0.1144
 2354SOL    HW1 7118   3.197   3.402   0.352 -1.5506  0.1940  0.8078
 2354SOL    HW2 7119   3.233   3.267   0.293  1.0106  1.0695  0.2250
 2355SOL     OW 7120   1.321   3.390   2.830  0.2756 -0.5097 -0.5525
 2355SOL    HW1 7121   1.286   3.397   2.919  0.1249 -0.7913 -0.5881
 2355SOL    HW2 7122   1.364   3.304   2.828  1.2992 -0.0214 -0.3962
 2356SOL     OW 7123   4.659   2.221   4.267  0.2779  0.2591  0.0067
 2356SOL    HW1 7124   4.566   2.205   4.283 -0.2067  0.3231 -2.3172
 2356SOL    HW2 7125   4.702   2.140   4.292 -0.6014 -0.2919 -0.2088
 2357SOL     OW 7126   1.887   0.884   3.087 -0.5050  0.1880  0.3056
 2357SOL    HW1 7127   1.973   0.927   3.089 -0.4071  0.0735 -0.9729
 2357SOL    HW2 7128   1.832   0.941   3.035 -0.4105 -1.1018 -1.2956
 2358SOL     OW 7129   2.399   0.982   0.088  0.3206 -0.1203  0.0756
 2358SOL    HW1 7130   2.364   1.064   0.052 -1.5438 -0.0974  1.7662
 2358SOL    HW2 7131   2.468   1.011   0.149 -0.1298  0.1905  0.4469
 2359SOL     OW 7132   3.060   0.735   2.664 -0.6255  0.7102  0.7006
 2359SOL    HW1 7133   3.137   0.699   2.619 -2.0586 -0.2391 -1.1526
 2359SOL    HW2 7134   3.031   0.664   2.721 -1.0785  0.4094  0.1142
 2360SOL     OW 7135   3.053   2.586   1.229  0.2432  0.7042 -0.4646
 2360SOL    HW1 7136   3.086   2.673   1.252 -0.1436  1.1110 -1.4096
 2360SOL    HW2 7137   2.997   2.600   1.154 -1.9650 -0.0122  0.9518
 2361SOL     OW 7138   4.235   4.256   2.330 -0.1392 -0.2915  0.4287
 2361SOL    HW1 7139   4.238   4.161   2.318  1.3597 -0.1610 -0.3801
 2361SOL    HW2 7140   4.146   4.281   2.304 -1.3367 -1.7013  2.7608
 2362SOL     OW 7141   0.703   0.395   1.597 -0.5368  0.1898  0.2270
 2362SOL    HW1 7142   0.766   0.383   1.526  0.5841  0.8156  1.0830
 2362SOL    HW2 7143   0.633   0.446   1.559 -0.3140 -0.1281 -0.6295
 2363SOL     OW 7144   4.498   2.448   0.471 -0.0810  0.5506 -0.0998
 2363SOL    HW1 7145   4.588   2.479   0.462  0.0990  0.0646  0.0177
 2363SOL    HW2 7146   4.445   2.520   0.437  0.2068  1.9649  2.2476
 2364SOL     OW 7147   1.890   4.908   2.867 -0.2204 -0.0081 -0.0343
 2364SOL    HW1 7148   1.858   4.933   2.954  2.7123 -0.3869  1.2689
 2364SOL    HW2 7149   1.944   4.830   2.882  3.1338  1.7950 -1.5284
 2365SOL     OW 7150   0.733   2.179   4.633 -0.1567  0.3143  0.4479
 2365SOL    HW1 7151   0.671   2.160   4.704  0.0664  1.7411  1.0550
 2365SOL    HW2 7152   0.691   2.247   4.581  0.2558  0.2210 -0.0211
 2366SOL     OW 7153   1.623   0.139   2.672 -0.1230 -0.3901  0.4570
 2366SOL    HW1 7154   1.554   0.096   2.724 -1.9467  1.2323 -0.4825
 2366SOL    HW2 7155   1.604   0.232   2.680  2.0492  0.1177  0.1939
 2367SOL     OW 7156   3.970   1.062   0.371 -0.4524 -0.2061  0.3944
 2367SOL    HW1 7157   4.048   1.087   0.420  0.6717  0.2342 -1.5212
 2367SOL    HW2 7158   3.928   1.145   0.349 -0.1014 -0.2987 -0.6729
 2368SOL     OW 7159   2.641   4.582   0.988 -0.4270  1.0360 -0.5254
 2368SOL    HW1 7160   2.705   4.525   1.031 -1.7950  0.7304  1.2311
 2368SOL    HW2 7161   2.694   4.644   0.938  1.2795  1.1847  1.3323
 2369SOL     OW 7162   0.357   2.689   0.936  0.0031 -0.0042 -0.0709
 2369SOL    HW1 7163   0.419   2.690   1.009  0.6345  0.0622 -0.6022
 2369SOL    HW2 7164   0.405   2.648   0.864 -1.4721 -2.6077  0.3057
 2370SOL     OW 7165   4.387   2.234   3.035  0.4085 -0.5626 -0.2210
 2370SOL    HW1 7166   4.295   2.247   3.060  0.0693 -1.0644 -1.1533
 2370SOL    HW2 7167   4.437   2.282   3.101 -0.5159 -0.4832  0.4352
 2371SOL     OW 7168   3.861   1.149   2.058 -0.3027  0.4895 -0.1095
 2371SOL    HW1 7169   3.935   1.112   2.108 -1.9293 -1.6775  0.8426
 2371SOL    HW2 7170   3.901   1.218   2.006  2.1632  0.3653  1.4156
 2372SOL     OW 7171   0.380   1.525   3.066 -0.0078 -0.0601  0.2288
 2372SOL    HW1 7172   0.403   1.503   3.157  0.6799  2.2885  0.6913
 2372SOL    HW2 7173   0.431   1.464   3.013 -2.1295 -3.0362  1.3450
 2373SOL     OW 7174   0.765   1.250   2.331 -0.3432 -0.0669 -0.4129
 2373SOL    HW1 7175   0.761   1.213   2.419  0.4083 -0.4312 -0.5257
 2373SOL    HW2 7176   0.858   1.247   2.308  0.2075  3.9052  0.4564
 2374SOL     OW 7177   0.172   0.647   3.986  0.0282 -0.1706  0.2139
 2374SOL    HW1 7178   0.181   0.686   3.900 -1.8920  0.8644  0.4298
 2374SOL    HW2 7179   0.143   0.719   4.042 -0.0102 -1.1080  1.4444
 2375SOL     OW 7180   0.022   4.842   2.808  0.1982  0.0395  0.0711
 2375SOL    HW1 7181   0.006   4.840   2.902  1.2038  1.7993  0.3114
 2375SOL    HW2 7182   0.068   4.760   2.790 -0.8462 -0.7598  0.9191
 2376SOL     OW 7183   1.407   0.518   1.250  0.5071  0.1385  0.4156
 2376SOL    HW1 7184   1.488   0.566   1.231 -0.4208  1.8918  0.6861
 2376SOL    HW2 7185   1.354   0.580   1.300 -0.9017 -1.0725  0.4782
 2377SOL     OW 7186   2.458   2.881   4.828  0.4752 -0.2915 -0.1359
 2377SOL    HW1 7187   2.402   2.855   4.901  1.4553 -0.4598  0.5695
 2377SOL    HW2 7188   2.440   2.974   4.816  0.7340 -0.1278  0.7038
 2378SOL     OW 7189   1.963   0.268   1.363 -0.5375  0.2727 -0.2480
 2378SOL    HW1 7190   1.968   0.172   1.368 -0.9803  0.2718  0.1616
 2378SOL    HW2 7191   1.870   0.288   1.364 -0.4271  0.7851  1.1040
 2379SOL     OW 7192   2.258   3.504   4.543  0.7844  0.3572 -0.7333
 2379SOL    HW1 7193   2.277   3.498   4.636 -0.0207  2.9929 -0.3310
 2379SOL    HW2 7194   2.340   3.533   4.503  1.2263 -1.0936 -0.9447
 2380SOL     OW 7195   3.426   2.429   4.247  0.2936  0.0329  0.8380
 2380SOL    HW1 7196   3.337   2.429   4.211 -0.7729 -1.4321  3.1919
 2380SOL    HW2 7197   3.415   2.460   4.337  2.5820  2.1686  0.4908
 2381SOL     OW 7198   1.658   2.090   1.427  1.2535  0.2182  0.2698
 2381SOL    HW1 7199   1.612   2.099   1.510  0.8262 -0.5441  0.1263
 2381SOL    HW2 7200   1.651   1.997   1.405 -0.2107  0.6685 -1.4894
 2382SOL     OW 7201   1.224   4.058   3.531 -0.8507  0.2388 -0.2410
 2382SOL    HW1 7202   1.234   3.963   3.523  0.6257  0.3036  0.4664
 2382SOL    HW2 7203   1.138   4.069   3.572 -0.0089 -0.9471  2.0055
 2383SOL     OW 7204   2.398   0.540   3.075 -0.1836 -0.2730  0.4088
 2383SOL    HW1 7205   2.319   0.562   3.123 -0.2715  0.2427  0.0443
 2383SOL    HW2 7206   2.411   0.614   3.015 -0.4979 -1.2268 -0.8925
 2384SOL     OW 7207   3.274   0.948   1.943  0.2381 -0.1524 -0.2378
 2384SOL    HW1 7208   3.336   1.007   1.900 -0.2171 -0.2506 -1.0453
 2384SOL    HW2 7209   3.307   0.940   2.033 -0.9991  3.2888  0.6702
 2385SOL     OW 7210   3.608   1.763   1.937 -0.1045 -0.8608 -0.5795
 2385SOL    HW1 7211   3.686   1.785   1.989  0.4476  1.9787 -2.3663
 2385SOL    HW2 7212   3.539   1.749   2.002  1.5237 -1.9636  1.0023
 2386SOL     OW 7213   0.686   4.864   1.958  0.1030 -1.4521  0.0600
 2386SOL    HW1 7214   0.703   4.807   1.882 -0.5717 -1.2869 -0.2246
 2386SOL    HW2 7215   0.691   4.953   1.923  0.4247 -1.3563  0.3477
 2387SOL     OW 7216   2.333   3.769   2.704  0.7759  1.1941 -0.0274
 2387SOL    HW1 7217   2.293   3.813   2.779 -1.1452  0.5500 -0.6316
 2387SOL    HW2 7218   2.418   3.739   2.737 -0.4501 -0.0422  2.2540
 2388SOL     OW 7219   1.210   0.600   0.898  0.2982  0.1178 -0.1685
 2388SOL    HW1 7220   1.299   0.565   0.906  0.7049  1.0444 -0.5734
 2388SOL    HW2 7221   1.167   0.542   0.836  1.2060  0.7579 -1.4366
 2389SOL     OW 7222   2.403   3.197   3.403  0.2179  0.4808  0.3506
 2389SOL    HW1 7223   2.333   3.167   3.345  0.7129 -0.0191  0.0037
 2389SOL    HW2 7224   2.421   3.286   3.374  0.6884  0.1229 -0.4951
 2390SOL     OW 7225   3.286   0.284   2.072  0.3642  0.1181  0.2646
 2390SOL    HW1 7226   3.221   0.231   2.118 -0.3139  0.5000 -0.2289
 2390SOL    HW2 7227   3.234   0.340   2.014  1.1407  0.3916 -0.1799
 2391SOL     OW 7228   1.750   2.354   4.084 -0.2250 -0.0814 -0.1422
 2391SOL    HW1 7229   1.707   2.324   4.163 -1.3851  0.6450 -0.4652
 2391SOL    HW2 7230   1.685   2.410   4.041  0.9557  0.8611 -0.7790
 2392SOL     OW 7231   4.706   0.868   2.265  0.3143 -0.1351 -0.5301
 2392SOL    HW1 7232   4.725   0.775   2.250  1.0967  0.1091 -1.1305
 2392SOL    HW2 7233   4.612   0.875   2.252 -0.0708 -1.1765  1.3373
 2393SOL     OW 7234   3.643   3.805   1.793 -0.4710 -0.1080  1.1902
 2393SOL    HW1 7235   3.732   3.774   1.773  0.4764  2.0360  1.7896
 2393SOL    HW2 7236   3.641   3.812   1.888 -1.6979 -1.1817  1.2680
 2394SOL     OW 7237   4.290   4.410   4.063 -0.0942 -0.7241 -0.2084
 2394SOL    HW1 7238   4.378   4.401   4.100 -0.9062 -0.6620  1.8779
 2394SOL    HW2 7239   4.287   4.346   3.991  0.9546 -2.2990  1.0817
 2395SOL     OW 7240   0.609   4.815   2.315  0.3634 -0.4210 -0.6362
 2395SOL    HW1 7241   0.595   4.909   2.305 -0.9530 -0.6332 -0.9183
 2395SOL    HW2 7242   0.528   4.775   2.285  1.0694 -1.6810 -0.9312
 2396SOL     OW 7243   0.609   3.744   0.036  0.3396  0.4248  0.1623
 2396SOL    HW1 7244   0.647   3.819   0.082  0.6816  0.0541  0.4946
 2396SOL    HW2 7245   0.676   3.676   0.043 -0.3215 -0.1972  0.6305
 2397SOL     OW 7246   1.736   2.824   1.256 -0.1386  0.4078  0.3455
 2397SOL    HW1 7247   1.773   2.856   1.338 -2.2088 -0.4037  1.6656
 2397SOL    HW2 7248   1.729   2.729   1.267  1.6633 -0.0416 -1.7111
 2398SOL     OW 7249   3.234   0.543   1.477 -0.2310 -0.2167  0.1659
 2398SOL    HW1 7250   3.178   0.590   1.415 -0.8143 -1.3881 -0.2235
 2398SOL    HW2 7251   3.276   0.475   1.425 -0.6216 -1.1333  1.0198
 2399SOL     OW 7252   0.539   1.131   3.739 -0.0761  0.2519  0.6184
 2399SOL    HW1 7253   0.555   1.221   3.711  1.7610  0.0102  0.8075
 2399SOL    HW2 7254   0.509   1.087   3.659 -0.6615  0.9326  0.4440
 2400SOL     OW 7255   1.413   1.610   2.827  0.0505 -0.4450 -0.6439
 2400SOL    HW1 7256   1.370   1.553   2.763 -0.4771 -0.0843 -0.6179
 2400SOL    HW2 7257   1.342   1.662   2.865  0.4483 -0.1753 -0.2531
 2401SOL     OW 7258   1.179   0.659   2.851  0.6712  0.0336 -0.0189
 2401SOL    HW1 7259   1.146   0.710   2.924 -1.2882 -0.4428 -0.5164
 2401SOL    HW2 7260   1.104   0.608   2.820  2.2254 -2.2805 -0.2953
 2402SOL     OW 7261   0.521   3.929   1.080 -0.1831 -0.2000 -0.3927
 2402SOL    HW1 7262   0.582   3.939   1.007 -1.4520  0.3934 -1.4072
 2402SOL    HW2 7263   0.435   3.940   1.041 -0.9587 -1.0692  1.0036
 2403SOL     OW 7264   2.536   0.965   2.790 -0.7776  0.6872  0.2104
 2403SOL    HW1 7265   2.540   1.060   2.797 -0.7506  0.6134  1.2680
 2403SOL    HW2 7266   2.582   0.945   2.708 -1.0833  1.5984 -0.1963
 2404SOL     OW 7267   0.576   2.250   0.697  0.3841  0.2234  0.0408
 2404SOL    HW1 7268   0.520   2.172   0.688  0.9476 -0.1210 -0.6135
 2404SOL    HW2 7269   0.665   2.215   0.700  0.5886  0.7931  0.6539
 2405SOL     OW 7270   1.295   4.727   1.940 -0.5605  0.0187  0.4723
 2405SOL    HW1 7271   1.333   4.737   1.853  0.7537  1.6069  1.1548
 2405SOL    HW2 7272   1.206   4.761   1.932 -0.3857  0.3348 -0.2313
 2406SOL     OW 7273   3.708   1.591   0.314  0.1786 -0.2783  0.3711
 2406SOL    HW1 7274   3.787   1.638   0.339  0.1732  0.3344 -0.7384
 2406SOL    HW2 7275   3.731   1.545   0.233 -0.1351 -1.3614  0.8720
 2407SOL     OW 7276   0.597   4.173   2.038 -0.0633 -0.1444  0.7864
 2407SOL    HW1 7277   0.518   4.225   2.054 -0.0046 -0.5212  2.4871
 2407SOL    HW2 7278   0.663   4.238   2.014 -0.3355  0.4383  1.5479
 2408SOL     OW 7279   1.304   4.368   0.086 -0.1310 -0.5957  0.2613
 2408SOL    HW1 7280   1.373   4.433   0.072  0.0230 -1.2487 -2.7884
 2408SOL    HW2 7281   1.351   4.288   0.108  0.1227 -0.9488 -1.4442
 2409SOL     OW 7282   1.140   4.144   2.904  0.5417 -0.7386  0.5189
 2409SOL    HW1 7283   1.202   4.175   2.970  0.8048  1.9495 -0.8334
 2409SOL    HW2 7284   1.057   4.133   2.951  0.1490  3.1932  1.0800
 2410SOL     OW 7285   3.468   1.563   0.945  0.1540 -0.7066  0.5831
 2410SOL    HW1 7286   3.375   1.582   0.928  0.2870 -0.5105  0.0265
 2410SOL    HW2 7287   3.514   1.612   0.876  0.6293 -1.3908  0.4084
 2411SOL     OW 7288   0.633   3.580   2.469 -0.2711 -0.4659 -0.4847
 2411SOL    HW1 7289   0.636   3.561   2.563 -1.5287  0.4779 -0.2184
 2411SOL    HW2 7290   0.540   3.596   2.452  0.1466  1.0732 -1.5267
 2412SOL     OW 7291   2.997   4.662   0.616  0.3029 -0.0971 -0.2967
 2412SOL    HW1 7292   3.085   4.642   0.648  0.0162 -1.1921 -0.1560
 2412SOL    HW2 7293   2.995   4.630   0.526 -0.3151 -1.1698  0.0860
 2413SOL     OW 7294   2.518   2.243   4.172  0.1311 -0.4043 -0.3281
 2413SOL    HW1 7295   2.439   2.265   4.122 -0.3508 -0.4900  0.3937
 2413SOL    HW2 7296   2.565   2.182   4.114 -0.4014 -0.4755 -0.7021
 2414SOL     OW 7297   2.520   3.445   1.922  0.3507 -0.1253  0.0705
 2414SOL    HW1 7298   2.431   3.412   1.911  0.3284 -0.1518  0.3163
 2414SOL    HW2 7299   2.535   3.443   2.017 -0.3627  2.3734  0.3119
 2415SOL     OW 7300   2.401   2.685   0.584  0.2690 -0.4410  0.3052
 2415SOL    HW1 7301   2.383   2.773   0.549  0.4430  0.6581  2.7570
 2415SOL    HW2 7302   2.346   2.679   0.662  0.1520 -2.6216  0.1017
 2416SOL     OW 7303   0.330   1.173   2.087  0.7079 -0.2337 -0.2730
 2416SOL    HW1 7304   0.420   1.205   2.087  0.8660 -0.6591  0.1293
 2416SOL    HW2 7305   0.337   1.084   2.122 -0.0364  0.2527  1.1803
 2417SOL     OW 7306   1.628   2.505   0.999  0.1971  0.5608  0.2638
 2417SOL    HW1 7307   1.629   2.502   1.095  0.4646 -2.6155  0.2575
 2417SOL    HW2 7308   1.538   2.527   0.977  0.1357  1.3470  1.2185
 2418SOL     OW 7309   4.876   0.258   4.633 -0.0483  0.2691  0.9037
 2418SOL    HW1 7310   4.952   0.277   4.688 -0.3541 -0.6271  1.6603
 2418SOL    HW2 7311   4.906   0.191   4.572 -0.1683  0.0734  1.0591
 2419SOL     OW 7312   4.207   2.346   1.233  0.0107  0.4877  0.0230
 2419SOL    HW1 7313   4.175   2.415   1.175 -1.3599  0.0219  0.2061
 2419SOL    HW2 7314   4.292   2.378   1.263  0.5106  0.9781 -1.8172
 2420SOL     OW 7315   3.568   4.139   3.487 -0.4186  0.7561 -0.5505
 2420SOL    HW1 7316   3.550   4.067   3.548  0.2670  1.4776  0.5432
 2420SOL    HW2 7317   3.577   4.096   3.402  0.1584 -0.4817  0.1002
 2421SOL     OW 7318   3.940   3.271   3.762  0.1607  0.7249 -0.1291
 2421SOL    HW1 7319   3.881   3.236   3.695  0.1170 -0.5732  0.5439
 2421SOL    HW2 7320   3.887   3.274   3.842  0.8398  0.0020  0.3678
 2422SOL     OW 7321   3.501   4.549   2.979 -0.2137  0.4348 -0.3754
 2422SOL    HW1 7322   3.447   4.578   3.052 -0.1500 -0.1894 -0.0722
 2422SOL    HW2 7323   3.579   4.512   3.021 -0.7262 -1.0693 -0.6946
 2423SOL     OW 7324   3.097   4.170   0.038  0.1622 -0.5359 -0.1859
 2423SOL    HW1 7325   3.168   4.232   0.022 -0.9925  1.0657  0.6751
 2423SOL    HW2 7326   3.092   4.119  -0.043  0.8705  0.7725 -1.0921
 2424SOL     OW 7327   0.809   1.429   2.995  0.0248 -0.3691  0.4145
 2424SOL    HW1 7328   0.804   1.513   3.041 -0.2605  0.5195 -1.1950
 2424SOL    HW2 7329   0.899   1.399   3.011  0.5340  0.8692 -0.0542
 2425SOL     OW 7330   3.292   2.136   0.262  0.2484  0.4984  0.1197
 2425SOL    HW1 7331   3.282   2.056   0.211  0.1065  0.4461  0.2333
 2425SOL    HW2 7332   3.382   2.165   0.242  0.3624  0.2163  0.2243
 2426SOL     OW 7333   0.385   4.442   3.039  0.2278  0.0224 -0.2998
 2426SOL    HW1 7334   0.325   4.369   3.020  2.5164 -2.4689  1.2508
 2426SOL    HW2 7335   0.439   4.449   2.960  0.7929 -0.8582 -0.0074
 2427SOL     OW 7336   3.545   2.332   4.633 -0.1997 -0.6712  0.1421
 2427SOL    HW1 7337   3.618   2.309   4.575 -0.8484 -0.0279 -0.9678
 2427SOL    HW2 7338   3.488   2.387   4.579 -0.5521  0.4251  1.5622
 2428SOL     OW 7339   4.503   4.658   4.091 -0.5405  0.0106 -0.5268
 2428SOL    HW1 7340   4.410   4.647   4.073 -0.7348 -0.4440  0.6221
 2428SOL    HW2 7341   4.543   4.673   4.005 -1.5933 -0.3476 -1.0990
 2429SOL     OW 7342   1.292   0.771   1.648  0.4817 -0.0088  0.0754
 2429SOL    HW1 7343   1.333   0.744   1.566  0.3781  1.8002 -0.6101
 2429SOL    HW2 7344   1.343   0.847   1.676  1.4596 -1.4257  2.5000
 2430SOL     OW 7345   2.893   3.305   4.101  0.1198 -0.3001 -0.4905
 2430SOL    HW1 7346   2.861   3.216   4.111  0.4839 -0.2273  1.8315
 2430SOL    HW2 7347   2.825   3.360   4.139  0.3164  0.3508 -1.0557
 2431SOL     OW 7348   0.120   2.986   4.515 -0.2378 -0.0246  0.5940
 2431SOL    HW1 7349   0.076   3.035   4.585  1.1062  1.1641  0.6781
 2431SOL    HW2 7350   0.096   3.033   4.435 -0.1722 -0.1690  0.4904
 2432SOL     OW 7351   3.501   1.647   3.820 -0.2390 -0.6012  0.0869
 2432SOL    HW1 7352   3.430   1.613   3.875 -0.6604  0.2792  0.0981
 2432SOL    HW2 7353   3.576   1.590   3.839 -0.1176  0.1830  2.2020
 2433SOL     OW 7354   1.275   3.056   1.506  0.0313  0.1381 -0.4210
 2433SOL    HW1 7355   1.217   3.062   1.582 -1.2290 -0.4320 -1.3115
 2433SOL    HW2 7356   1.362   3.043   1.543 -0.2192  1.9960  0.9846
 2434SOL     OW 7357   1.221   3.802   0.773 -0.1494 -0.2511 -0.0111
 2434SOL    HW1 7358   1.270   3.720   0.778  0.6469 -0.2863 -4.6343
 2434SOL    HW2 7359   1.288   3.870   0.768 -0.7344  0.3178 -0.1722
 2435SOL     OW 7360   3.012   4.716   2.081 -0.0417  0.0231  0.0780
 2435SOL    HW1 7361   2.963   4.689   2.003 -0.1398  1.3867 -0.3608
 2435SOL    HW2 7362   2.972   4.799   2.107  1.4244  0.7010  0.2538
 2436SOL     OW 7363   1.433   2.583   0.440 -0.6920  0.1690  0.5664
 2436SOL    HW1 7364   1.382   2.525   0.383  2.0431 -0.7302 -1.1796
 2436SOL    HW2 7365   1.514   2.599   0.391  0.6041  1.7354  3.0256
 2437SOL     OW 7366   2.331   2.978   0.931  0.1001  0.3272 -0.0697
 2437SOL    HW1 7367   2.250   3.027   0.946  0.6129  0.8069  1.2363
 2437SOL    HW2 7368   2.302   2.893   0.896 -1.0912 -0.1976  2.0585
 2438SOL     OW 7369   1.276   3.151   4.862  0.4034 -0.5596  0.1043
 2438SOL    HW1 7370   1.231   3.068   4.875  0.8713 -0.6540  1.2853
 2438SOL    HW2 7371   1.240   3.208   4.930  1.7437 -0.5257  0.8217
 2439SOL     OW 7372   3.484   3.307   3.543  0.0994 -0.3094  0.4583
 2439SOL    HW1 7373   3.402   3.269   3.575  0.0695  0.6203  1.5806
 2439SOL    HW2 7374   3.541   3.232   3.527 -1.0472 -0.9822 -0.5972
 2440SOL     OW 7375   2.623   0.749   4.021 -0.8355 -0.1136 -0.3722
 2440SOL    HW1 7376   2.699   0.799   4.053 -2.1132  0.2230  2.4210
 2440SOL    HW2 7377   2.614   0.677   4.084 -2.2687 -0.6893 -1.2148
 2441SOL     OW 7378   3.452   0.530   4.134 -0.6223 -0.1802  0.2948
 2441SOL    HW1 7379   3.381   0.552   4.193 -1.4078 -0.1575 -0.6309
 2441SOL    HW2 7380   3.433   0.441   4.105 -0.4883 -0.0350 -0.2513
 2442SOL     OW 7381   1.775   0.397   1.493 -0.1272 -0.0188 -0.0179
 2442SOL    HW1 7382   1.717   0.456   1.542  0.7722  1.0798 -0.2300
 2442SOL    HW2 7383   1.851   0.385   1.551  0.8256  1.0745 -0.9787
 2443SOL     OW 7384   3.776   3.592   0.340 -0.1367  0.6976 -0.5748
 2443SOL    HW1 7385   3.762   3.637   0.423  1.1138 -0.5797  0.3611
 2443SOL    HW2 7386   3.704   3.622   0.284  0.7433  4.0864 -0.1457
 2444SOL     OW 7387   2.274   1.256   0.469  0.9340  0.3238  0.2508
 2444SOL    HW1 7388   2.234   1.324   0.416  1.5779 -0.9086 -1.9198
 2444SOL    HW2 7389   2.200   1.202   0.498  0.7657 -1.1018 -2.5307
 2445SOL     OW 7390   1.003   0.673   3.785  0.4348  0.0052 -0.1794
 2445SOL    HW1 7391   0.934   0.731   3.817 -1.1511 -1.5989 -0.5159
 2445SOL    HW2 7392   0.995   0.677   3.689  2.2134  1.3714 -0.3138
 2446SOL     OW 7393   4.459   1.786   4.906  0.6204 -0.3331 -0.3768
 2446SOL    HW1 7394   4.423   1.825   4.826 -2.6095 -1.1083  0.5231
 2446SOL    HW2 7395   4.413   1.832   4.977  1.8287 -1.1209  0.9569
 2447SOL     OW 7396   4.603   3.976   1.750 -0.0357 -0.2616 -0.3547
 2447SOL    HW1 7397   4.582   3.897   1.701 -1.7591  0.1586 -0.3575
 2447SOL    HW2 7398   4.640   3.944   1.832 -0.5208 -1.0848 -0.4397
 2448SOL     OW 7399   1.255   1.402   1.557  0.0579  0.4967  0.1946
 2448SOL    HW1 7400   1.305   1.419   1.478  0.0295 -0.6977 -0.1093
 2448SOL    HW2 7401   1.262   1.482   1.608  1.0767  0.8566 -0.4778
 2449SOL     OW 7402   4.182   0.471   3.249  0.4832  0.8278 -0.9815
 2449SOL    HW1 7403   4.225   0.466   3.164  2.0229 -0.4020 -0.1852
 2449SOL    HW2 7404   4.203   0.388   3.292  0.1280  1.5941  0.7824
 2450SOL     OW 7405   4.588   1.951   3.917  0.0364  0.1256  0.4975
 2450SOL    HW1 7406   4.651   1.903   3.862 -0.5141 -0.5618  0.4545
 2450SOL    HW2 7407   4.581   2.037   3.875 -0.2147 -0.3164 -0.3946
 2451SOL     OW 7408   4.568   0.425   0.651 -0.1315 -0.3650 -0.0516
 2451SOL    HW1 7409   4.647   0.372   0.639  0.0154 -0.1403 -0.0796
 2451SOL    HW2 7410   4.501   0.361   0.678  0.4127 -0.3726  1.4213
 2452SOL     OW 7411   4.408   4.432   3.771 -0.9276  0.3740 -0.2794
 2452SOL    HW1 7412   4.313   4.438   3.759 -0.6450  0.4667 -3.1316
 2452SOL    HW2 7413   4.437   4.523   3.780 -1.0611  0.3606  0.3405
 2453SOL     OW 7414   0.730   0.643   4.524  0.0584  0.1181  0.3497
 2453SOL    HW1 7415   0.768   0.589   4.454  0.7996  0.1492  0.7118
 2453SOL    HW2 7416   0.636   0.638   4.510  0.1844 -0.1238 -0.4678
 2454SOL     OW 7417   1.221   1.217   4.493  0.0806 -0.2461 -0.8121
 2454SOL    HW1 7418   1.250   1.128   4.509  1.4158  0.2567 -0.2301
 2454SOL    HW2 7419   1.126   1.213   4.493  0.1319 -1.7334 -1.2473
 2455SOL     OW 7420   0.431   0.493   4.853  0.2656  0.0050 -0.7318
 2455SOL    HW1 7421   0.344   0.488   4.893  0.1678  2.1663 -0.5498
 2455SOL    HW2 7422   0.416   0.468   4.762 -0.3568 -0.6475 -0.4552
 2456SOL     OW 7423   4.554   2.641   2.212  0.3742  0.3496  0.1045
 2456SOL    HW1 7424   4.584   2.732   2.216 -0.3547  0.5618  1.3648
 2456SOL    HW2 7425   4.460   2.648   2.195  0.4912 -0.2150 -0.8330
 2457SOL     OW 7426   3.411   3.763   4.007 -0.0292 -0.4620 -0.3606
 2457SOL    HW1 7427   3.493   3.783   3.961 -0.6575  1.7062 -0.6475
 2457SOL    HW2 7428   3.343   3.775   3.942 -0.7958  0.7693  0.6259
 2458SOL     OW 7429   3.839   4.577   1.811 -0.4237 -0.0290  0.1282
 2458SOL    HW1 7430   3.912   4.553   1.753 -1.1437  0.9654 -1.2435
 2458SOL    HW2 7431   3.790   4.495   1.822  0.4195 -0.5210  0.4058
 2459SOL     OW 7432   3.222   1.831   3.339 -0.2022  0.2722 -0.2814
 2459SOL    HW1 7433   3.300   1.866   3.297 -2.1556  1.5348 -3.1522
 2459SOL    HW2 7434   3.179   1.907   3.378 -1.1765 -0.0203 -0.7707
 2460SOL     OW 7435   1.974   1.327   2.140 -0.1533 -0.2062 -0.0823
 2460SOL    HW1 7436   2.019   1.377   2.072 -0.6369  0.6967  0.2450
 2460SOL    HW2 7437   1.888   1.367   2.147  0.2031  0.3432  1.6962
 2461SOL     OW 7438   4.764   0.716   4.329 -0.1386 -0.0744 -0.6375
 2461SOL    HW1 7439   4.788   0.648   4.266 -1.4454 -2.2864  1.1329
 2461SOL    HW2 7440   4.842   0.724   4.385 -0.8316 -2.0913  0.7330
 2462SOL     OW 7441   0.179   2.484   1.967 -0.0802 -0.1221 -0.3870
 2462SOL    HW1 7442   0.260   2.514   2.008  0.5937 -2.4758  0.1321
 2462SOL    HW2 7443   0.110   2.520   2.023  0.6526  0.5322  0.1301
 2463SOL     OW 7444   2.651   0.847   0.002  0.0069  0.9077  0.0726
 2463SOL    HW1 7445   2.728   0.794   0.023 -0.0131  0.3722 -1.1097
 2463SOL    HW2 7446   2.649   0.914   0.070 -0.1158 -0.7552  1.7932
 2464SOL     OW 7447   1.238   0.092   4.560  0.3350 -0.5417 -0.2808
 2464SOL    HW1 7448   1.155   0.048   4.541 -0.3358 -0.0505  1.3443
 2464SOL    HW2 7449   1.249   0.084   4.655 -0.3034  3.4876  0.3020
 2465SOL     OW 7450   1.874   4.504   3.498  0.1046  0.1992  0.7049
 2465SOL    HW1 7451   1.835   4.587   3.526  0.5385  1.1996 -1.4141
 2465SOL    HW2 7452   1.816   4.437   3.534 -1.2173  1.4812  1.0716
 2466SOL     OW 7453   4.012   1.333   1.884  0.4253 -0.2088 -0.0800
 2466SOL    HW1 7454   4.087   1.342   1.943  1.5330  0.0651 -1.4784
 2466SOL    HW2 7455   4.000   1.420   1.847  0.0080 -0.4685 -0.5696
 2467SOL     OW 7456   2.154   2.172   2.515 -0.5863 -0.4475  0.8103
 2467SOL    HW1 7457   2.160   2.131   2.429 -0.5005 -0.2945  0.7423
 2467SOL    HW2 7458   2.182   2.104   2.576  0.3103 -0.2515  0.6306
 2468SOL     OW 7459   4.651   2.237   3.177  0.0285 -0.9463  0.3227
 2468SOL    HW1 7460   4.667   2.329   3.155 -2.2662 -0.8495 -1.3284
 2468SOL    HW2 7461   4.738   2.197   3.178  1.2410  1.4259  2.3581
 2469SOL     OW 7462   2.700   0.271   1.869  1.0701 -0.2145 -0.5161
 2469SOL    HW1 7463   2.635   0.317   1.923  0.4092 -1.3807 -0.2872
 2469SOL    HW2 7464   2.785   0.299   1.905  0.7334  1.3902 -0.8717
 2470SOL     OW 7465   3.067   4.206   0.581 -0.0848  0.2722 -0.2415
 2470SOL    HW1 7466   3.124   4.276   0.550  2.2670 -1.1386  0.5981
 2470SOL    HW2 7467   3.096   4.189   0.671 -2.4017 -0.0058  0.5106
 2471SOL     OW 7468   3.336   3.654   4.240 -0.3367 -0.0081  0.0588
 2471SOL    HW1 7469   3.247   3.622   4.221 -0.7515  0.1058  1.6855
 2471SOL    HW2 7470   3.372   3.677   4.154 -1.3692 -1.3665 -0.7771
 2472SOL     OW 7471   2.345   2.581   4.580 -0.1135 -0.0488  0.4163
 2472SOL    HW1 7472   2.293   2.554   4.656 -0.4295  0.6619  0.4666
 2472SOL    HW2 7473   2.417   2.518   4.576 -0.2848 -0.2977  1.1045
 2473SOL     OW 7474   2.966   0.786   1.649 -0.6511  0.0428 -0.6068
 2473SOL    HW1 7475   2.942   0.693   1.641  0.7271 -0.2021 -2.4747
 2473SOL    HW2 7476   2.990   0.796   1.741 -0.9176 -1.4208 -0.3436
 2474SOL     OW 7477   4.754   0.745   3.836  1.1070  0.6573 -0.5379
 2474SOL    HW1 7478   4.775   0.797   3.914  0.9640  0.8061 -0.5975
 2474SOL    HW2 7479   4.735   0.657   3.870  0.2126  0.9224 -0.3092
 2475SOL     OW 7480   1.054   1.793   4.791  0.0923  0.4855 -0.3032
 2475SOL    HW1 7481   1.079   1.882   4.816  1.4024 -0.7155  3.4331
 2475SOL    HW2 7482   0.967   1.782   4.829  0.4840 -0.1833  0.4312
 2476SOL     OW 7483   2.797   0.903   2.616 -0.1094  0.4872  0.6192
 2476SOL    HW1 7484   2.762   0.931   2.532 -3.2750 -0.8043  1.3707
 2476SOL    HW2 7485   2.822   0.812   2.603 -1.3791  0.0354  1.2496
 2477SOL     OW 7486   1.733   1.637   1.779 -0.5147 -0.4186 -0.1690
 2477SOL    HW1 7487   1.746   1.543   1.761 -2.4500 -0.9606  0.9767
 2477SOL    HW2 7488   1.711   1.641   1.872 -1.3075  1.0910 -0.3934
 2478SOL     OW 7489   4.465   4.380   2.095  0.1759 -0.0461 -0.1565
 2478SOL    HW1 7490   4.393   4.331   2.055  0.7741  1.1362 -2.9297
 2478SOL    HW2 7491   4.539   4.318   2.096 -0.3840 -0.7446  1.2001
 2479SOL     OW 7492   4.720   2.451   2.331 -0.1912  0.1780  0.0856
 2479SOL    HW1 7493   4.692   2.522   2.274 -1.5147 -0.2892  0.1120
 2479SOL    HW2 7494   4.724   2.489   2.418 -0.5221  0.3186  0.0404
 2480SOL     OW 7495   3.350   0.548   1.044  0.2276  0.8258  0.8465
 2480SOL    HW1 7496   3.388   0.568   1.130  2.3519  1.2589 -0.1314
 2480SOL    HW2 7497   3.411   0.485   1.005  0.1261  1.7538 -0.8995
 2481SOL     OW 7498   3.017   4.642   1.169 -0.6288  0.0549 -0.0082
 2481SOL    HW1 7499   2.956   4.690   1.114  0.4510 -1.3000 -2.5935
 2481SOL    HW2 7500   2.994   4.550   1.156  0.1211 -0.3510  1.3002
 2482SOL     OW 7501   3.462   2.074   1.811 -0.0702 -0.5033  0.1779
 2482SOL    HW1 7502   3.390   2.114   1.860 -0.3789 -0.6349 -0.1595
 2482SOL    HW2 7503   3.516   2.032   1.878 -0.6514 -0.9456  0.3883
 2483SOL     OW 7504   1.051   4.891   4.492 -0.2636 -0.5941  0.1239
 2483SOL    HW1 7505   1.079   4.849   4.411 -2.1474 -0.7047 -0.5168
 2483SOL    HW2 7506   0.995   4.826   4.535 -2.0221  0.6529 -0.1666
 2484SOL     OW 7507   3.222   0.647   3.490  0.1233  0.3820 -0.4602
 2484SOL    HW1 7508   3.149   0.585   3.484 -0.6245  0.9412  1.8301
 2484SOL    HW2 7509   3.252   0.640   3.581  2.2472  0.9541 -1.0556
 2485SOL     OW 7510   3.014   4.692   4.292 -0.6177  0.3634 -0.0976
 2485SOL    HW1 7511   2.929   4.714   4.253 -1.8388 -0.3952  1.9617
 2485SOL    HW2 7512   3.038   4.608   4.253 -1.2151  0.1980 -0.1158
 2486SOL     OW 7513   1.462   1.149   1.960  0.2909  0.4062  0.2674
 2486SOL    HW1 7514   1.496   1.173   1.874 -0.7303  0.8250 -0.0339
 2486SOL    HW2 7515   1.368   1.165   1.954 -0.2964 -2.4524  0.4657
 2487SOL     OW 7516   4.380   2.831   0.014  0.0348 -0.2933  1.0497
 2487SOL    HW1 7517   4.302   2.794  -0.027 -0.7130 -1.2590  3.1921
 2487SOL    HW2 7518   4.346   2.888   0.083  1.2446  1.0462  0.6132
 2488SOL     OW 7519   3.424   2.048   2.486 -0.2843  0.2710  0.2189
 2488SOL    HW1 7520   3.376   1.982   2.536  1.2497 -0.1945  1.1152
 2488SOL    HW2 7521   3.507   2.007   2.464  1.5058  2.4382  2.3705
 2489SOL     OW 7522   4.943   2.139   1.862 -0.2191  0.5053  0.0764
 2489SOL    HW1 7523   5.031   2.158   1.893 -0.4005 -0.2921  1.1564
 2489SOL    HW2 7524   4.887   2.200   1.910 -0.3370  0.4466  0.0140
 2490SOL     OW 7525   0.137   0.376   0.245  0.0837 -0.0618 -0.1954
 2490SOL    HW1 7526   0.049   0.367   0.208 -0.6877 -0.5364  1.6654
 2490SOL    HW2 7527   0.123   0.392   0.338  1.9534 -2.0331  0.5223
 2491SOL     OW 7528   4.059   3.260   2.699 -0.2481  0.1786 -0.3784
 2491SOL    HW1 7529   4.051   3.216   2.614 -0.8011  0.5095 -0.5022
 2491SOL    HW2 7530   4.088   3.349   2.677 -0.7262  0.3686 -0.2489
 2492SOL     OW 7531   2.013   3.048   1.966  0.0138  0.4297 -0.2179
 2492SOL    HW1 7532   1.936   3.029   2.020 -1.2561  2.4418 -1.2030
 2492SOL    HW2 7533   2.066   2.968   1.970 -2.3567 -1.2177  0.0835
 2493SOL     OW 7534   0.653   2.380   2.000 -0.4043  0.0333  0.7520
 2493SOL    HW1 7535   0.717   2.357   1.932  1.4868  4.6798  0.5968
 2493SOL    HW2 7536   0.668   2.315   2.069  3.2349 -0.2812 -0.0966
 2494SOL     OW 7537   3.697   0.997   0.056 -0.1117  0.1653 -0.2400
 2494SOL    HW1 7538   3.696   1.067  -0.010  0.6165  0.6884  0.2801
 2494SOL    HW2 7539   3.787   0.964   0.055  0.3338  1.1532  1.4464
 2495SOL     OW 7540   2.056   0.797   0.549  0.2440  0.8344  0.0911
 2495SOL    HW1 7541   1.974   0.751   0.528  1.2950 -1.0969  0.0293
 2495SOL    HW2 7542   2.104   0.799   0.466  1.6560 -1.0884  0.7777
 2496SOL     OW 7543   1.846   3.876   4.526 -0.2787 -0.0725 -0.5825
 2496SOL    HW1 7544   1.822   3.968   4.516  1.8048  0.7247  1.0838
 2496SOL    HW2 7545   1.843   3.861   4.621  2.1837 -0.8788 -0.5845
 2497SOL     OW 7546   1.998   1.796   2.762  0.2988 -0.0819  0.3266
 2497SOL    HW1 7547   1.917   1.845   2.775  1.6382  2.0015  1.3740
 2497SOL    HW2 7548   1.992   1.724   2.825 -0.1219  0.9218  1.4744
 2498SOL     OW 7549   4.084   0.633   2.660 -0.4208 -0.2547 -0.9439
 2498SOL    HW1 7550   4.034   0.705   2.699 -0.3247 -0.3913 -0.5647
 2498SOL    HW2 7551   4.058   0.633   2.567  1.3477  1.7817 -1.5101
 2499SOL     OW 7552   3.553   4.578   2.410  0.6573  0.5855  0.7118
 2499SOL    HW1 7553   3.525   4.669   2.421 -0.5262  0.5645 -1.4484
 2499SOL    HW2 7554   3.483   4.526   2.450  0.0610  0.6205 -0.2479
 2500SOL     OW 7555   2.437   0.559   1.330 -0.3573 -0.3759 -0.5924
 2500SOL    HW1 7556   2.355   0.510   1.334 -0.3259 -0.3506  2.3429
 2500SOL    HW2 7557   2.505   0.495   1.353  0.2102  0.0555 -1.0323
 2501SOL     OW 7558   1.882   2.209   0.990  0.6828  0.1199  0.0126
 2501SOL    HW1 7559   1.854   2.227   1.080  1.1969  0.9146  0.0155
 2501SOL    HW2 7560   1.815   2.251   0.936  2.2295  2.7841  0.0097
 2502SOL     OW 7561   2.722   0.994   1.577 -0.3973 -0.5213  0.2541
 2502SOL    HW1 7562   2.686   0.986   1.489  1.7310  1.7368 -0.9649
 2502SOL    HW2 7563   2.786   0.923   1.583 -0.8554 -0.9443  0.1486
 2503SOL     OW 7564   3.652   1.604   2.261  0.2333 -0.0624 -0.5301
 2503SOL    HW1 7565   3.597   1.529   2.238  0.2640 -0.3269  0.2061
 2503SOL    HW2 7566   3.740   1.579   2.232  0.4552 -0.8092  0.6829
 2504SOL     OW 7567   3.949   0.601   4.186  0.1186 -0.0292 -0.0210
 2504SOL    HW1 7568   4.012   0.632   4.250 -0.3639  1.0023 -0.0214
 2504SOL    HW2 7569   3.892   0.676   4.170 -0.1457 -0.4531 -1.1969
 2505SOL     OW 7570   2.676   3.428   2.655 -0.6205  0.4918 -0.2626
 2505SOL    HW1 7571   2.636   3.364   2.596  0.1039 -2.1062  1.8475
 2505SOL    HW2 7572   2.767   3.434   2.625 -0.1313 -1.1796  0.7716
 2506SOL     OW 7573   3.391   2.512   3.751 -0.1716 -0.3937 -0.1134
 2506SOL    HW1 7574   3.328   2.578   3.720 -0.9741 -0.5020  1.2007
 2506SOL    HW2 7575   3.454   2.562   3.803  0.4331 -0.3883 -0.8374
 2507SOL     OW 7576   3.980   4.286   0.385 -0.0318  0.2138  0.1456
 2507SOL    HW1 7577   4.016   4.292   0.296  1.9059  0.9813  0.9123
 2507SOL    HW2 7578   4.055   4.304   0.442 -1.4735  0.9384  1.9187
 2508SOL     OW 7579   0.450   4.458   1.263 -0.3362  0.0270  0.1728
 2508SOL    HW1 7580   0.455   4.383   1.203  3.4474 -0.7070  1.1213
 2508SOL    HW2 7581   0.460   4.419   1.350 -0.8416  1.4540  0.8951
 2509SOL     OW 7582   1.409   4.538   2.119  0.3163 -0.4469  0.2363
 2509SOL    HW1 7583   1.368   4.602   2.061 -0.6719 -0.3173  1.0575
 2509SOL    HW2 7584   1.340   4.473   2.135  0.7487 -0.7636  0.8366
 2510SOL     OW 7585   0.702   4.981   3.577  0.3924  0.3322  0.3217
 2510SOL    HW1 7586   0.731   4.896   3.609 -0.0749 -0.2589 -0.7629
 2510SOL    HW2 7587   0.647   4.961   3.501 -2.1747  1.4231  1.7573
 2511SOL     OW 7588   4.815   4.213   2.686  0.2675  0.4896 -0.7982
 2511SOL    HW1 7589   4.838   4.238   2.775 -1.0256 -0.4812 -0.1629
 2511SOL    HW2 7590   4.806   4.297   2.639  0.8032  1.0102  0.0145
 2512SOL     OW 7591   3.344   3.542   0.754 -0.0489 -0.0424  0.4150
 2512SOL    HW1 7592   3.264   3.594   0.739  0.8720  1.2007 -0.3672
 2512SOL    HW2 7593   3.328   3.497   0.837 -2.1706 -1.0112 -0.4461
 2513SOL     OW 7594   1.851   3.881   4.796 -0.1326 -0.1547 -0.3051
 2513SOL    HW1 7595   1.763   3.861   4.828 -0.9734  1.3836 -1.4985
 2513SOL    HW2 7596   1.896   3.919   4.872 -0.5619 -0.7068  0.2395
 2514SOL     OW 7597   3.869   2.461   4.632  0.7265  0.4786  0.3302
 2514SOL    HW1 7598   3.820   2.472   4.714 -1.8907  0.9613 -1.2150
 2514SOL    HW2 7599   3.908   2.374   4.639  0.0727  0.2796  1.8408
 2515SOL     OW 7600   0.869   3.932   4.896 -0.4228 -0.0175  0.9283
 2515SOL    HW1 7601   0.812   3.946   4.971 -0.7133  2.1415  0.3757
 2515SOL    HW2 7602   0.817   3.959   4.821  1.1109  1.5177  0.3536
 2516SOL     OW 7603   4.222   0.070   3.212  0.2656 -0.1417 -0.1656
 2516SOL    HW1 7604   4.231  -0.023   3.231  0.8653 -0.2643 -1.0026
 2516SOL    HW2 7605   4.269   0.083   3.130 -0.0130  0.8575 -0.1862
 2517SOL     OW 7606   0.406   3.592   2.288 -0.0237  0.3163 -0.1757
 2517SOL    HW1 7607   0.441   3.655   2.225 -0.2757  0.6293 -0.0096
 2517SOL    HW2 7608   0.311   3.608   2.288 -0.1375 -0.3289 -0.4176
 2518SOL     OW 7609   4.125   2.903   0.360 -0.1212 -0.4794  0.7611
 2518SOL    HW1 7610   4.181   2.917   0.284  1.0496 -2.0527  1.2790
 2518SOL    HW2 7611   4.041   2.875   0.323 -0.4303  1.2928  0.0031
 2519SOL     OW 7612   4.795   3.424   2.498 -0.1226  0.3988 -0.0059
 2519SOL    HW1 7613   4.858   3.490   2.469  0.3139 -1.3986 -3.6873
 2519SOL    HW2 7614   4.847   3.344   2.505 -1.0074 -0.0602  2.5822
 2520SOL     OW 7615   3.284   4.581   3.146  0.0852 -0.2832  0.4516
 2520SOL    HW1 7616   3.324   4.495   3.158  0.8032 -0.2378 -1.3211
 2520SOL    HW2 7617   3.208   4.581   3.205  0.5638 -1.7896  1.1116
 2521SOL     OW 7618   2.325   0.396   3.305  0.2561 -0.1440 -0.1643
 2521SOL    HW1 7619   2.283   0.465   3.357 -1.1025  0.5728 -2.1104
 2521SOL    HW2 7620   2.260   0.326   3.300 -0.0047  0.1765 -1.6174
 2522SOL     OW 7621   2.574   1.491   4.923  0.0998  0.1092  0.3583
 2522SOL    HW1 7622   2.527   1.421   4.877  0.2194  0.7796 -0.8396
 2522SOL    HW2 7623   2.528   1.571   4.898 -0.3626  0.4266  2.1480
 2523SOL     OW 7624   2.349   4.135   4.373 -0.3899 -0.6942 -0.4193
 2523SOL    HW1 7625   2.367   4.157   4.282 -0.4811 -0.2423 -0.3303
 2523SOL    HW2 7626   2.424   4.169   4.422 -1.1405  0.6258 -0.1264
 2524SOL     OW 7627   1.570   4.004   3.497  0.4555 -0.4929  0.1920
 2524SOL    HW1 7628   1.514   4.058   3.552 -0.5974 -1.5760  0.2513
 2524SOL    HW2 7629   1.589   3.927   3.550  0.8873 -0.7518 -0.3266
 2525SOL     OW 7630   0.548   1.947   3.651 -0.1166  0.1189 -0.3791
 2525SOL    HW1 7631   0.622   1.990   3.608 -1.5262  1.6642 -1.3614
 2525SOL    HW2 7632   0.540   1.863   3.606  0.4953  0.2997 -0.8431
 2526SOL     OW 7633   2.265   1.030   3.467  0.2346  0.6952  0.2374
 2526SOL    HW1 7634   2.244   1.073   3.550  0.6038 -0.4089  0.9267
 2526SOL    HW2 7635   2.190   0.974   3.450  1.0670 -0.7042  0.9641
 2527SOL     OW 7636   4.302   2.764   1.276 -0.0149  0.1067  0.5663
 2527SOL    HW1 7637   4.305   2.822   1.200 -1.0008 -0.3964  0.1239
 2527SOL    HW2 7638   4.384   2.714   1.270  0.3386  0.7041  0.3515
 2528SOL     OW 7639   4.014   1.601   3.168  0.0653 -0.2152  0.4130
 2528SOL    HW1 7640   3.942   1.547   3.137 -0.7308 -0.5109  2.5914
 2528SOL    HW2 7641   3.979   1.645   3.245  1.4004  1.7158 -0.0043
 2529SOL     OW 7642   0.433   4.076   3.482 -0.0417 -0.2044  0.0786
 2529SOL    HW1 7643   0.401   4.044   3.566 -4.0903 -0.7362 -1.4393
 2529SOL    HW2 7644   0.461   3.997   3.435  1.1078 -0.0379  0.4473
 2530SOL     OW 7645   4.318   0.583   1.006 -0.3324 -0.1330  0.0307
 2530SOL    HW1 7646   4.330   0.644   0.933 -1.3005  0.8132  0.6161
 2530SOL    HW2 7647   4.257   0.518   0.974 -0.8945  0.3811  0.0390
 2531SOL     OW 7648   0.260   2.077   2.624  0.0209 -0.1527  0.0504
 2531SOL    HW1 7649   0.304   2.013   2.567 -0.6824  1.0432 -1.9700
 2531SOL    HW2 7650   0.185   2.029   2.659  0.8031 -1.0983  0.5011
 2532SOL     OW 7651   4.873   1.029   4.284 -0.4586 -0.3653  0.3904
 2532SOL    HW1 7652   4.907   1.086   4.352  0.5834  0.5735 -0.8605
 2532SOL    HW2 7653   4.783   1.011   4.311 -0.3804  0.7635  1.5180
 2533SOL     OW 7654   4.129   4.497   4.268 -0.7138  0.1915  0.3311
 2533SOL    HW1 7655   4.198   4.478   4.204  0.1378  1.3473  0.8864
 2533SOL    HW2 7656   4.094   4.411   4.291  1.9628 -0.6616  1.5904
 2534SOL     OW 7657   1.337   1.529   1.118  0.0515  0.1297  0.4748
 2534SOL    HW1 7658   1.259   1.577   1.144  0.5952  0.7141  1.0848
 2534SOL    HW2 7659   1.405   1.597   1.113  0.0126  0.0855 -2.4869
 2535SOL     OW 7660   2.716   3.736   0.876 -0.5049 -0.0901  0.2361
 2535SOL    HW1 7661   2.666   3.672   0.928  0.8431  0.1101  1.8926
 2535SOL    HW2 7662   2.654   3.806   0.858 -1.6025 -1.1640 -0.3111
 2536SOL     OW 7663   1.867   3.652   2.197  0.0754  0.0038  1.0143
 2536SOL    HW1 7664   1.848   3.657   2.291 -0.9914  2.3566  0.7390
 2536SOL    HW2 7665   1.937   3.716   2.183 -1.4041  1.4804 -0.0920
 2537SOL     OW 7666   0.650   1.208   0.261 -0.6228  0.1846 -0.0585
 2537SOL    HW1 7667   0.575   1.267   0.254 -0.8498  0.0287  0.9304
 2537SOL    HW2 7668   0.724   1.264   0.281 -0.5484  0.2906 -0.6107
 2538SOL     OW 7669   4.259   0.632   0.180 -0.1767 -0.0768 -0.1167
 2538SOL    HW1 7670   4.268   0.540   0.205  0.1011 -0.1512 -0.4790
 2538SOL    HW2 7671   4.200   0.631   0.104 -2.4005  0.2980  1.5031
 2539SOL     OW 7672   2.490   4.892   0.110  0.3167  0.3752  0.3791
 2539SOL    HW1 7673   2.554   4.862   0.045  1.3469 -0.5194  1.7597
 2539SOL    HW2 7674   2.543   4.917   0.186 -0.8067  2.1460  0.6377
 2540SOL     OW 7675   2.964   3.743   2.621  0.3472 -0.6693 -0.7604
 2540SOL    HW1 7676   2.876   3.779   2.606  0.2807 -0.9277 -0.9976
 2540SOL    HW2 7677   3.013   3.816   2.658 -1.2475 -1.7591  4.1784
 2541SOL     OW 7678   4.506   2.904   1.789  0.0882 -0.1864  0.4951
 2541SOL    HW1 7679   4.449   2.906   1.712 -0.2468  0.9189  0.7486
 2541SOL    HW2 7680   4.528   2.996   1.804  2.6160 -0.6175 -0.0652
 2542SOL     OW 7681   2.916   4.073   0.395  0.3773  0.2946  0.2913
 2542SOL    HW1 7682   2.913   4.138   0.325 -0.0406  0.6264  0.6087
 2542SOL    HW2 7683   2.932   4.124   0.474  0.0787  0.0084  0.5392
 2543SOL     OW 7684   4.405   3.812   4.363  0.2483  0.3993 -0.2794
 2543SOL    HW1 7685   4.370   3.896   4.393 -1.1595 -0.5690  0.8965
 2543SOL    HW2 7686   4.328   3.756   4.353  1.3420 -1.8926  2.6655
 2544SOL     OW 7687   3.277   3.307   1.476 -0.3200  0.3898 -0.4011
 2544SOL    HW1 7688   3.206   3.278   1.419  0.3553 -1.0915 -0.5117
 2544SOL    HW2 7689   3.352   3.253   1.452 -0.2337 -0.9220  2.4750
 2545SOL     OW 7690   2.408   2.653   3.907  0.0527 -0.4798 -0.4168
 2545SOL    HW1 7691   2.473   2.641   3.977  0.5593 -1.0666 -0.9721
 2545SOL    HW2 7692   2.450   2.615   3.830 -0.2778  0.6569 -1.1636
 2546SOL     OW 7693   4.827   2.229   4.591  0.5489 -1.0172  0.5783
 2546SOL    HW1 7694   4.847   2.300   4.653 -0.6521 -0.8746  0.8367
 2546SOL    HW2 7695   4.823   2.272   4.506 -1.2702 -0.5053  0.8628
 2547SOL     OW 7696   4.305   2.378   2.457  0.1254  0.1475  0.3036
 2547SOL    HW1 7697   4.376   2.336   2.409  0.0414  0.5424 -0.1705
 2547SOL    HW2 7698   4.346   2.452   2.502 -0.0459  0.5797 -0.2457
 2548SOL     OW 7699   1.761   1.970   4.510 -0.1481 -0.5072 -0.7378
 2548SOL    HW1 7700   1.683   2.009   4.551  0.4520 -1.8900  1.9417
 2548SOL    HW2 7701   1.748   1.983   4.416 -1.3137  3.5684 -0.2279
 2549SOL     OW 7702   0.371   1.853   1.959  0.1584  0.8294 -0.1407
 2549SOL    HW1 7703   0.354   1.909   1.883  1.0286  0.4238 -0.6514
 2549SOL    HW2 7704   0.416   1.777   1.923 -1.5001 -0.5059  0.4673
 2550SOL     OW 7705   0.758   3.933   0.458 -0.0405 -0.1095 -0.2453
 2550SOL    HW1 7706   0.843   3.900   0.486 -0.5511  0.4712  2.2207
 2550SOL    HW2 7707   0.774   4.024   0.434 -0.1063  0.3355  1.2875
 2551SOL     OW 7708   2.732   3.432   2.965  0.3646 -0.6062  0.6877
 2551SOL    HW1 7709   2.671   3.368   2.929 -0.8866 -1.0817  3.3731
 2551SOL    HW2 7710   2.811   3.423   2.911 -0.9993 -1.8477 -1.2310
 2552SOL     OW 7711   0.072   0.128   4.428 -0.6516  0.1136  0.4018
 2552SOL    HW1 7712   0.152   0.155   4.473 -0.3747  0.6178 -0.3679
 2552SOL    HW2 7713   0.080   0.033   4.418 -0.7372 -0.0108  1.4299
 2553SOL     OW 7714   3.492   2.931   0.497  0.3208 -0.0376 -0.1400
 2553SOL    HW1 7715   3.482   2.985   0.575  1.4908  1.7149 -1.1374
 2553SOL    HW2 7716   3.569   2.878   0.514 -0.4113 -0.9081  0.5511
 2554SOL     OW 7717   3.914   0.290   3.300  0.3361 -0.5078 -0.6440
 2554SOL    HW1 7718   3.842   0.337   3.343  1.6129  2.6694 -1.6563
 2554SOL    HW2 7719   3.974   0.269   3.372  1.0916  2.1749 -0.3592
 2555SOL     OW 7720   4.488   0.444   4.917 -0.6468  0.3704 -0.0770
 2555SOL    HW1 7721   4.554   0.511   4.936  0.9392 -0.6009 -1.8275
 2555SOL    HW2 7722   4.515   0.368   4.970  0.9511 -0.7157 -2.2898
 2556SOL     OW 7723   0.184   2.540   4.262 -0.2766  0.9325 -0.8110
 2556SOL    HW1 7724   0.139   2.455   4.262  1.8958 -0.3804  2.0713
 2556SOL    HW2 7725   0.277   2.517   4.253  0.4331  2.9059  0.8399
 2557SOL     OW 7726   1.901   2.739   2.997  0.1699 -0.5340 -0.0554
 2557SOL    HW1 7727   1.845   2.743   2.920 -0.5869  1.4105  0.5383
 2557SOL    HW2 7728   1.984   2.776   2.970  0.2275 -0.7544 -0.1818
 2558SOL     OW 7729   4.641   2.939   4.027  0.5801 -0.1730  0.3512
 2558SOL    HW1 7730   4.671   2.938   4.118  0.6099  1.2120  0.3889
 2558SOL    HW2 7731   4.714   2.979   3.978  0.0439  0.3355 -0.0516
 2559SOL     OW 7732   0.376   3.167   4.383 -0.0682 -0.1183  0.1856
 2559SOL    HW1 7733   0.404   3.078   4.359  1.4409  0.4260 -0.2043
 2559SOL    HW2 7734   0.289   3.176   4.344 -1.1587 -2.0973  1.9217
 2560SOL     OW 7735   4.446   2.194   0.715 -0.2791  0.2922  0.0678
 2560SOL    HW1 7736   4.484   2.279   0.693  1.5582 -0.3297  0.6465
 2560SOL    HW2 7737   4.463   2.183   0.809  1.3019 -1.5376 -0.3693
 2561SOL     OW 7738   0.834   1.734   0.999 -0.0952  0.3727 -0.0288
 2561SOL    HW1 7739   0.831   1.818   0.953 -1.7003  0.6856  0.5819
 2561SOL    HW2 7740   0.777   1.677   0.947 -0.4739  0.2070  0.5611
 2562SOL     OW 7741   4.384   3.805   1.467 -0.3650  0.3326 -0.1493
 2562SOL    HW1 7742   4.452   3.743   1.440 -0.0521  1.0772 -1.1654
 2562SOL    HW2 7743   4.431   3.888   1.477 -1.3237  1.1906 -2.2832
 2563SOL     OW 7744   4.946   3.102   0.107 -0.6107  0.1200 -0.1591
 2563SOL    HW1 7745   5.019   3.095   0.046 -0.6867  0.3139 -0.2733
 2563SOL    HW2 7746   4.873   3.134   0.054 -0.4115  1.2716  0.2200
 2564SOL     OW 7747   3.139   3.147   3.465  0.1527 -0.1447 -0.3004
 2564SOL    HW1 7748   3.071   3.080   3.462  0.4608 -0.4322 -1.0918
 2564SOL    HW2 7749   3.102   3.215   3.522 -1.2374  0.1775 -1.5086
 2565SOL     OW 7750   4.015   3.749   1.025 -0.4935  0.5208 -0.2080
 2565SOL    HW1 7751   3.984   3.772   1.112  1.1495  1.0210  0.2941
 2565SOL    HW2 7752   3.952   3.789   0.965 -3.5527 -2.5569  0.6480
 2566SOL     OW 7753   3.777   3.869   1.546  0.2677 -0.8236  0.8228
 2566SOL    HW1 7754   3.764   3.951   1.595  0.2899 -0.3429  0.0360
 2566SOL    HW2 7755   3.689   3.833   1.535 -0.3816  1.3610 -2.6599
 2567SOL     OW 7756   0.020   0.821   4.486 -0.0174  0.2470 -0.3582
 2567SOL    HW1 7757  -0.005   0.857   4.572  2.7192  2.5397 -0.3785
 2567SOL    HW2 7758   0.056   0.734   4.506  1.5092  1.1431  1.0197
 2568SOL     OW 7759   4.109   3.917   0.169  0.5783 -0.0699 -0.2873
 2568SOL    HW1 7760   4.127   3.895   0.261 -2.1329  0.9670  0.5627
 2568SOL    HW2 7761   4.014   3.917   0.162  0.6986 -0.7261 -3.3033
 2569SOL     OW 7762   2.655   1.379   0.186  0.3059 -0.6638  0.1218
 2569SOL    HW1 7763   2.623   1.447   0.128 -0.7326  1.5755  3.0848
 2569SOL    HW2 7764   2.751   1.385   0.180  0.2324  0.9354  0.1683
 2570SOL     OW 7765   3.380   2.459   2.222 -0.5813 -0.1867 -0.2153
 2570SOL    HW1 7766   3.450   2.404   2.258 -0.1207  0.7560  0.3983
 2570SOL    HW2 7767   3.369   2.528   2.287 -0.3933  1.0480 -1.4543
 2571SOL     OW 7768   0.492   2.755   4.466 -0.0880 -0.1122 -0.1714
 2571SOL    HW1 7769   0.411   2.715   4.498 -1.0973  0.8509 -1.4156
 2571SOL    HW2 7770   0.517   2.816   4.535 -0.7845  0.0502 -0.0516
 2572SOL     OW 7771   2.000   2.167   4.455 -0.0130 -0.1527  0.2059
 2572SOL    HW1 7772   1.976   2.210   4.373  2.1664  1.1124  0.1444
 2572SOL    HW2 7773   2.096   2.162   4.452  0.0942 -0.4394  2.4782
 2573SOL     OW 7774   0.533   0.654   1.505 -0.3961 -0.0945  0.5227
 2573SOL    HW1 7775   0.539   0.685   1.415  0.4379 -2.1399 -0.1680
 2573SOL    HW2 7776   0.617   0.677   1.544 -0.4731  0.1284  0.5577
 2574SOL     OW 7777   0.996   2.519   1.938  0.0809 -0.0519  0.2257
 2574SOL    HW1 7778   0.940   2.576   1.885  0.7890 -0.3079 -0.8305
 2574SOL    HW2 7779   1.077   2.512   1.888  0.8443 -0.1800  1.4298
 2575SOL     OW 7780   3.287   3.231   4.901  0.1001  0.2886  0.0684
 2575SOL    HW1 7781   3.200   3.193   4.889  0.1593 -0.2181  1.1152
 2575SOL    HW2 7782   3.270   3.323   4.922 -0.3196 -0.1832  2.0374
 2576SOL     OW 7783   2.604   0.422   4.301 -0.4973  0.3331  0.4218
 2576SOL    HW1 7784   2.576   0.459   4.385 -0.2111  0.7786  0.3193
 2576SOL    HW2 7785   2.528   0.433   4.244 -0.6825  0.0561  0.6116
 2577SOL     OW 7786   2.769   4.510   3.251 -0.0277 -0.2626 -0.1877
 2577SOL    HW1 7787   2.674   4.505   3.237 -0.1274 -0.9293  0.6531
 2577SOL    HW2 7788   2.804   4.540   3.167 -1.0527  0.8025 -0.2641
 2578SOL     OW 7789   1.042   2.813   0.740 -0.5339  0.6869 -0.0728
 2578SOL    HW1 7790   0.977   2.882   0.731 -0.9274  0.4792  0.9684
 2578SOL    HW2 7791   1.121   2.858   0.771 -0.5772  0.7649 -0.0768
 2579SOL     OW 7792   0.688   3.017   2.542 -0.3210  0.4316  0.4466
 2579SOL    HW1 7793   0.760   3.080   2.552  1.0045 -0.7313 -1.1159
 2579SOL    HW2 7794   0.719   2.937   2.584 -1.6386  0.5104  1.6563
 2580SOL     OW 7795   1.670   4.322   2.667 -0.3540  0.2152 -0.5264
 2580SOL    HW1 7796   1.648   4.327   2.574 -0.5926  3.3305 -0.3934
 2580SOL    HW2 7797   1.609   4.382   2.710  1.5192  0.9650  1.2700
 2581SOL     OW 7798   2.591   4.729   2.312  0.5438 -0.1926  0.6553
 2581SOL    HW1 7799   2.609   4.647   2.265 -0.6060 -0.2624  0.3028
 2581SOL    HW2 7800   2.528   4.775   2.257  1.6434  1.2493  0.5341
 2582SOL     OW 7801   4.679   0.954   2.690 -0.3560  0.5247  0.4439
 2582SOL    HW1 7802   4.676   0.954   2.786 -0.3345 -0.2162  0.4462
 2582SOL    HW2 7803   4.598   0.998   2.663 -0.6345  0.2297  0.7937
 2583SOL     OW 7804   1.318   4.630   0.495  0.3475 -0.0393  0.2748
 2583SOL    HW1 7805   1.382   4.702   0.491 -2.4652  2.7331  0.8668
 2583SOL    HW2 7806   1.328   4.594   0.583  0.8692  0.5794  0.4772
 2584SOL     OW 7807   0.651   4.514   1.570 -0.1292 -0.3743  0.1692
 2584SOL    HW1 7808   0.578   4.452   1.573 -1.0420  0.6350 -0.2287
 2584SOL    HW2 7809   0.725   4.462   1.540 -1.0560 -1.1315 -0.9259
 2585SOL     OW 7810   3.035   1.881   0.736  0.1917  0.5437  0.0762
 2585SOL    HW1 7811   3.086   1.961   0.735  1.2513 -0.1128  0.1951
 2585SOL    HW2 7812   3.078   1.826   0.802 -1.7144  0.6287  1.4780
 2586SOL     OW 7813   3.949   1.456   3.741 -0.1980 -0.3666  0.0082
 2586SOL    HW1 7814   3.949   1.517   3.667  0.4397 -0.3932 -0.0173
 2586SOL    HW2 7815   3.934   1.512   3.818 -0.4889 -0.2932 -0.0982
 2587SOL     OW 7816   0.133   2.972   2.186  1.4228  0.2560 -0.4154
 2587SOL    HW1 7817   0.134   2.958   2.280  2.3682 -1.6217 -0.6415
 2587SOL    HW2 7818   0.120   2.884   2.149  0.5225  1.0305 -2.0234
 2588SOL     OW 7819   4.417   3.269   1.619 -0.1671 -0.0286 -0.5355
 2588SOL    HW1 7820   4.470   3.251   1.697  2.0385  2.1514 -1.4146
 2588SOL    HW2 7821   4.452   3.209   1.552  0.9484  1.0442 -0.9658
 2589SOL     OW 7822   3.163   2.322   4.099  0.1227 -0.1762  0.4246
 2589SOL    HW1 7823   3.144   2.237   4.137 -0.6696 -0.0991  0.2216
 2589SOL    HW2 7824   3.196   2.302   4.011 -0.6845 -0.2619  0.1316
 2590SOL     OW 7825   2.821   2.695   2.289 -0.4533  0.0911  0.3138
 2590SOL    HW1 7826   2.823   2.680   2.194  0.7248  0.2559  0.3049
 2590SOL    HW2 7827   2.894   2.644   2.323  0.7170  2.0103  0.8290
 2591SOL     OW 7828   2.146   0.102   1.022  0.4703  0.2072  0.2839
 2591SOL    HW1 7829   2.137   0.023   0.968 -1.2791  0.7084 -0.2550
 2591SOL    HW2 7830   2.120   0.074   1.110  1.1902 -0.1098  0.4057
 2592SOL     OW 7831   0.042   3.828   3.472 -0.2694  0.6080 -0.3604
 2592SOL    HW1 7832  -0.039   3.843   3.422 -0.6827  0.9026  0.3850
 2592SOL    HW2 7833   0.016   3.840   3.563  0.2770 -0.8375 -0.0018
 2593SOL     OW 7834   2.332   1.425   2.178  0.7518 -0.1277  0.0851
 2593SOL    HW1 7835   2.385   1.369   2.121  0.5742  0.7630 -0.9915
 2593SOL    HW2 7836   2.243   1.416   2.143  0.5615  0.0691  0.5151
 2594SOL     OW 7837   4.191   1.257   0.802 -0.0125  0.2843 -0.0977
 2594SOL    HW1 7838   4.271   1.309   0.802  0.2879 -0.1675 -0.3292
 2594SOL    HW2 7839   4.124   1.314   0.764  0.0908  0.8205  0.5016
 2595SOL     OW 7840   2.429   3.216   3.978 -0.3384 -0.0575 -0.0737
 2595SOL    HW1 7841   2.349   3.172   3.948 -0.5197  0.8145 -0.9376
 2595SOL    HW2 7842   2.485   3.220   3.901 -0.0715  0.6489  0.1456
 2596SOL     OW 7843   0.692   1.769   1.612  0.2411 -0.7719 -0.5762
 2596SOL    HW1 7844   0.786   1.765   1.630  0.9408 -1.8228 -3.8007
 2596SOL    HW2 7845   0.675   1.862   1.596  1.0139 -0.7012 -1.0583
 2597SOL     OW 7846   0.095   3.176   4.320  0.3928  0.1085  0.5316
 2597SOL    HW1 7847   0.084   3.213   4.233  0.5725 -1.0827 -0.0142
 2597SOL    HW2 7848   0.023   3.213   4.372  0.1798  0.6802 -0.1654
 2598SOL     OW 7849   3.153   0.102   2.231  0.5168  0.2761  0.2959
 2598SOL    HW1 7850   3.193   0.131   2.313  0.0112  0.5035  0.4675
 2598SOL    HW2 7851   3.215   0.038   2.195  1.5716  1.4414 -0.0091
 2599SOL     OW 7852   1.912   4.238   1.237 -0.1454 -0.2450 -0.2207
 2599SOL    HW1 7853   1.964   4.278   1.168 -0.4089  0.8931  0.2157
 2599SOL    HW2 7854   1.890   4.152   1.204 -0.9888  0.5877 -1.9407
 2600SOL     OW 7855   2.487   0.498   0.480  0.0769 -0.4749  0.1248
 2600SOL    HW1 7856   2.581   0.479   0.481  0.2229  0.2109  0.7898
 2600SOL    HW2 7857   2.482   0.594   0.478 -0.6160 -0.4998 -1.7683
 2601SOL     OW 7858   4.131   0.684   2.101 -0.4428 -0.0284 -0.1383
 2601SOL    HW1 7859   4.203   0.625   2.078  0.3653  0.8559  0.0598
 2601SOL    HW2 7860   4.162   0.729   2.180 -0.3732  1.7822 -1.1409
 2602SOL     OW 7861   3.550   3.594   4.756 -0.2695 -0.0131  0.4805
 2602SOL    HW1 7862   3.473   3.570   4.706  1.1827 -1.0011 -1.4087
 2602SOL    HW2 7863   3.517   3.650   4.826 -2.6513 -0.3182 -0.3250
 2603SOL     OW 7864   4.541   0.870   1.825 -0.0188  0.1592 -0.0863
 2603SOL    HW1 7865   4.613   0.904   1.771 -0.3739  1.1443  0.0581
 2603SOL    HW2 7866   4.480   0.831   1.762 -0.2000  0.8810 -0.3584
 2604SOL     OW 7867   0.281   3.077   3.626  0.0616  0.1664  0.8013
 2604SOL    HW1 7868   0.361   3.129   3.619 -0.5403  0.9935 -0.3236
 2604SOL    HW2 7869   0.229   3.120   3.693  0.6173 -0.4832  1.6712
 2605SOL     OW 7870   1.003   4.238   3.744 -0.0827  0.5298  0.1252
 2605SOL    HW1 7871   1.069   4.300   3.714  1.7185 -0.4794  1.7577
 2605SOL    HW2 7872   1.001   4.171   3.675  0.8920  0.3839  0.2191
 2606SOL     OW 7873   3.940   1.963   3.337  0.8382 -0.5189  0.1172
 2606SOL    HW1 7874   3.849   1.972   3.366 -0.2778 -0.8150 -2.9504
 2606SOL    HW2 7875   3.967   1.876   3.368 -1.4931 -2.3405 -2.5146
 2607SOL     OW 7876   3.136   1.970   0.416 -0.1687  0.0500 -0.0393
 2607SOL    HW1 7877   3.169   2.060   0.420  0.3268 -0.0934 -0.8077
 2607SOL    HW2 7878   3.206   1.917   0.455 -0.1587 -0.0832 -0.2376
 2608SOL     OW 7879   4.888   3.467   3.927  0.1197 -0.4994 -0.1684
 2608SOL    HW1 7880   4.958   3.506   3.875  0.9510 -0.8356  0.6640
 2608SOL    HW2 7881   4.921   3.470   4.017 -0.6114 -1.3786  0.1428
 2609SOL     OW 7882   0.600   4.799   0.363 -0.3433  0.3139 -0.0170
 2609SOL    HW1 7883   0.686   4.758   0.373 -0.9190 -0.7562  0.7914
 2609SOL    HW2 7884   0.545   4.731   0.323 -0.8466  0.9448 -0.4209
 2610SOL     OW 7885   4.653   2.057   2.560 -0.0413 -0.3915 -0.1318
 2610SOL    HW1 7886   4.566   2.044   2.598  0.3739  0.4490  1.1814
 2610SOL    HW2 7887   4.678   2.145   2.587 -0.2862  0.9151 -3.6213
 2611SOL     OW 7888   4.304   2.579   3.147 -0.3885 -0.2263  0.1396
 2611SOL    HW1 7889   4.301   2.516   3.219  0.0435 -1.5074 -0.9248
 2611SOL    HW2 7890   4.382   2.633   3.165  0.4116 -1.3101  0.0325
 2612SOL     OW 7891   1.004   2.828   1.752  0.9928 -0.1882  0.7288
 2612SOL    HW1 7892   0.955   2.815   1.833 -0.5095  1.7229  0.1846
 2612SOL    HW2 7893   1.069   2.894   1.773  0.8803 -0.0000  0.4925
 2613SOL     OW 7894   4.967   0.388   0.524  0.9771 -0.4049  0.1233
 2613SOL    HW1 7895   4.892   0.337   0.555 -0.0002  0.7688 -0.1932
 2613SOL    HW2 7896   5.020   0.403   0.603  0.1873 -0.1623  0.6311
 2614SOL     OW 7897   2.499   0.272   3.098 -0.3785 -0.2214 -0.0519
 2614SOL    HW1 7898   2.440   0.336   3.138  0.6961  1.0540 -0.4302
 2614SOL    HW2 7899   2.499   0.295   3.005 -1.4755 -2.0376 -0.5479
 2615SOL     OW 7900   2.318   3.097   2.871  0.1719 -0.0597  0.2222
 2615SOL    HW1 7901   2.358   3.100   2.784  1.2153  1.8027  0.7224
 2615SOL    HW2 7902   2.307   3.003   2.889  2.1585 -0.5704 -0.9287
 2616SOL     OW 7903   2.737   0.799   4.414 -0.0099 -0.2883 -0.3167
 2616SOL    HW1 7904   2.729   0.844   4.330 -1.6657 -2.2100 -1.2643
 2616SOL    HW2 7905   2.666   0.834   4.468 -0.3705 -0.6728 -0.5354
 2617SOL     OW 7906   0.521  -0.028   2.900 -0.1119 -0.5511 -0.2460
 2617SOL    HW1 7907   0.499   0.008   2.815  0.0795  1.1535  0.3815
 2617SOL    HW2 7908   0.591   0.029   2.933  1.0086 -2.1931  0.3560
 2618SOL     OW 7909   4.017   4.357   1.989  0.3470  0.0809  0.0759
 2618SOL    HW1 7910   4.020   4.436   2.043  0.0686 -0.3202  0.6822
 2618SOL    HW2 7911   4.102   4.314   2.004 -0.8413 -1.6041  2.6173
 2619SOL     OW 7912   0.849   3.370   2.347 -0.1317  0.1464  0.1886
 2619SOL    HW1 7913   0.904   3.423   2.290 -1.8795  0.6769 -1.0834
 2619SOL    HW2 7914   0.803   3.433   2.402  0.1069 -0.2463  0.8410
 2620SOL     OW 7915   0.844   4.358   1.465 -0.3779  0.1035  0.0139
 2620SOL    HW1 7916   0.869   4.337   1.375  0.8959 -1.5971  0.7095
 2620SOL    HW2 7917   0.892   4.295   1.519 -1.1551  1.0325  1.8952
 2621SOL     OW 7918   0.809   3.475   1.162 -0.3718 -0.7485  0.2518
 2621SOL    HW1 7919   0.722   3.445   1.189 -0.6395 -2.6298 -2.2549
 2621SOL    HW2 7920   0.805   3.473   1.066  2.9011 -2.4384  0.0237
 2622SOL     OW 7921   2.838   0.512   1.069  0.2562 -0.3192 -0.2221
 2622SOL    HW1 7922   2.894   0.446   1.028 -0.5097 -1.7714  0.9861
 2622SOL    HW2 7923   2.847   0.497   1.163 -2.0894 -0.5715  0.0194
 2623SOL     OW 7924   0.231   0.168   0.909 -0.4015 -0.5706 -0.6095
 2623SOL    HW1 7925   0.282   0.112   0.852  0.4713 -0.5464  0.1126
 2623SOL    HW2 7926   0.284   0.175   0.989 -1.8935 -1.1698  0.4748
 2624SOL     OW 7927   3.545   1.389   1.756 -0.2185  0.0008 -0.0927
 2624SOL    HW1 7928   3.622   1.446   1.753  0.7227 -1.2668 -1.2414
 2624SOL    HW2 7929   3.503   1.400   1.671 -2.3147  1.9200  1.0885
 2625SOL     OW 7930   1.590   4.131   1.830 -0.4426 -0.0443 -0.2751
 2625SOL    HW1 7931   1.673   4.106   1.870 -0.6358 -0.9427 -0.4046
 2625SOL    HW2 7932   1.523   4.096   1.889 -0.7363  0.6062 -0.2111
 2626SOL     OW 7933   3.130   3.633   3.861 -0.1332 -0.2476  0.3481
 2626SOL    HW1 7934   3.189   3.562   3.834  1.1904  1.6716 -2.2505
 2626SOL    HW2 7935   3.060   3.632   3.796  0.1056  1.0142  0.0451
 2627SOL     OW 7936   2.079   3.159   2.608  0.5165  0.3646 -0.1414
 2627SOL    HW1 7937   2.010   3.164   2.542 -0.5958 -0.0003  0.9566
 2627SOL    HW2 7938   2.145   3.100   2.569 -0.1856  0.0255 -0.8476
 2628SOL     OW 7939   3.525   4.580   3.885 -0.2861  0.0917 -0.2223
 2628SOL    HW1 7940   3.612   4.614   3.906 -0.6804 -0.2964  2.3386
 2628SOL    HW2 7941   3.466   4.624   3.947 -1.3419 -2.4320  0.7050
 2629SOL     OW 7942   1.016   2.556   0.781 -0.0899  0.2225 -0.0981
 2629SOL    HW1 7943   1.018   2.528   0.690 -0.1190 -0.8689  0.2237
 2629SOL    HW2 7944   1.012   2.651   0.777 -0.0035  0.1870 -1.2322
 2630SOL     OW 7945   4.329   1.713   2.987 -0.3888  0.0307 -0.0879
 2630SOL    HW1 7946   4.241   1.738   2.961 -0.9455 -0.0556  1.5862
 2630SOL    HW2 7947   4.371   1.796   3.010 -0.1317  0.0403 -0.5847
 2631SOL     OW 7948   0.799   4.199   3.333  0.0351  0.2889 -0.2761
 2631SOL    HW1 7949   0.725   4.259   3.330 -0.8532 -0.8235 -1.5781
 2631SOL    HW2 7950   0.855   4.227   3.259  0.5760  0.6765  0.2682
 2632SOL     OW 7951   1.905   3.734   1.838 -0.2246  0.0444  0.4314
 2632SOL    HW1 7952   1.906   3.812   1.893 -1.5737 -0.7219  1.6098
 2632SOL    HW2 7953   1.813   3.710   1.832 -0.0716 -0.1786 -1.8211
 2633SOL     OW 7954   0.866   4.788   2.172 -0.2286  0.1328  0.1327
 2633SOL    HW1 7955   0.842   4.821   2.086  1.0953 -0.2865 -0.4151
 2633SOL    HW2 7956   0.788   4.804   2.226 -0.5817  1.6903 -0.7746
 2634SOL     OW 7957   2.553   1.126   3.038 -0.0888  0.0603  0.0509
 2634SOL    HW1 7958   2.615   1.084   2.978 -0.6913  0.2322 -0.7113
 2634SOL    HW2 7959   2.601   1.201   3.074 -0.4588  1.3897 -2.0599
 2635SOL     OW 7960   1.606   3.687   0.878 -0.2415 -0.5296 -0.0237
 2635SOL    HW1 7961   1.629   3.769   0.923  0.0881 -1.3489  1.3675
 2635SOL    HW2 7962   1.627   3.618   0.942  0.0985 -1.7510 -1.3992
 2636SOL     OW 7963   3.726   0.087   1.193 -0.2797  0.0858 -0.2344
 2636SOL    HW1 7964   3.702   0.037   1.115  0.5546 -0.4984 -0.1423
 2636SOL    HW2 7965   3.817   0.060   1.211 -0.5779 -0.0947  1.1574
 2637SOL     OW 7966   3.533   4.784   4.300 -0.2502  0.3075  0.2602
 2637SOL    HW1 7967   3.502   4.802   4.389 -0.9966 -0.0485  0.0769
 2637SOL    HW2 7968   3.499   4.697   4.280 -1.8584  1.2088 -1.1469
 2638SOL     OW 7969   0.165   3.079   4.888  0.2772  0.1051  0.0091
 2638SOL    HW1 7970   0.210   3.142   4.832  1.1412 -0.0499  0.5002
 2638SOL    HW2 7971   0.228   3.007   4.899 -0.8411 -1.0516 -0.8797
 2639SOL     OW 7972   0.239   2.416   4.649  0.1487 -0.3770 -0.2244
 2639SOL    HW1 7973   0.243   2.489   4.587  0.5652 -0.3621 -0.1826
 2639SOL    HW2 7974   0.242   2.337   4.595  0.0741 -0.3665 -0.2451
 2640SOL     OW 7975   0.130   0.701   4.772  0.2440  0.1152  0.3568
 2640SOL    HW1 7976   0.140   0.612   4.738  1.6635  0.1411  0.6481
 2640SOL    HW2 7977   0.035   0.714   4.780  0.0022 -1.0819 -0.4263
 2641SOL     OW 7978   3.557   2.177   1.534 -0.5840 -0.9993 -0.5088
 2641SOL    HW1 7979   3.511   2.125   1.600  0.6561 -0.5981  0.7184
 2641SOL    HW2 7980   3.493   2.190   1.465 -2.1657 -0.8333  0.9381
 2642SOL     OW 7981   4.489   2.620   2.796 -0.1618 -0.3189  0.5506
 2642SOL    HW1 7982   4.408   2.605   2.747 -0.9409 -1.4684  2.0873
 2642SOL    HW2 7983   4.461   2.670   2.872  0.6946 -0.1473  0.7500
 2643SOL     OW 7984   0.446   3.274   1.791 -0.4678 -0.1449  0.2760
 2643SOL    HW1 7985   0.408   3.221   1.861 -1.3567 -0.7736 -0.6439
 2643SOL    HW2 7986   0.382   3.269   1.720  1.9196 -2.4735 -1.9440
 2644SOL     OW 7987   0.064   0.551   4.518 -0.3757  0.5499 -0.2048
 2644SOL    HW1 7988   0.086   0.468   4.561  1.1522  1.5811  1.0763
 2644SOL    HW2 7989   0.051   0.526   4.426 -2.1279 -1.4366  0.4958
 2645SOL     OW 7990   3.259   0.454   0.607  0.3735 -0.3441 -0.2694
 2645SOL    HW1 7991   3.278   0.542   0.574 -0.9237 -0.4036 -1.2569
 2645SOL    HW2 7992   3.243   0.467   0.701  2.2723  0.1174  0.0260
 2646SOL     OW 7993   0.439   2.731   3.721  0.0649  0.3665 -0.3622
 2646SOL    HW1 7994   0.419   2.800   3.785  0.6464  1.5205 -1.3785
 2646SOL    HW2 7995   0.493   2.668   3.769 -1.5410 -0.0778  0.9456
 2647SOL     OW 7996   3.868   1.892   2.873 -0.0115  0.5315 -0.2487
 2647SOL    HW1 7997   3.821   1.866   2.793  1.3679 -1.8588 -0.3679
 2647SOL    HW2 7998   3.800   1.895   2.941 -0.7116 -0.5106 -0.8823
 2648SOL     OW 7999   4.836   0.041   2.268 -0.3755 -0.2428 -0.2495
 2648SOL    HW1 8000   4.903   0.089   2.218 -1.1739  1.4528  0.2367
 2648SOL    HW2 8001   4.886  -0.018   2.325  0.7341  1.0335  0.1581
 2649SOL     OW 8002   2.098   4.378   3.388  0.0597 -0.3255  0.1482
 2649SOL    HW1 8003   2.127   4.349   3.475  0.6562 -0.7793 -0.1938
 2649SOL    HW2 8004   2.002   4.376   3.393  0.0113  1.4426  1.3876
 2650SOL     OW 8005   3.401   2.758   2.397 -0.1927 -0.2991  0.2392
 2650SOL    HW1 8006   3.487   2.756   2.439 -0.8283 -2.0693  1.6140
 2650SOL    HW2 8007   3.346   2.808   2.458 -0.0575  1.3205 -0.9072
 2651SOL     OW 8008   4.409   0.995   3.084 -0.4162 -0.1089  0.6334
 2651SOL    HW1 8009   4.370   1.015   3.169 -2.2324 -0.3954 -0.0990
 2651SOL    HW2 8010   4.335   0.987   3.024  0.8259  0.2218 -1.0242
 2652SOL     OW 8011   0.617   0.925   0.878 -0.4591 -0.0460  0.8918
 2652SOL    HW1 8012   0.711   0.932   0.891 -0.3423 -1.0109  0.6260
 2652SOL    HW2 8013   0.595   0.998   0.819  0.5906 -1.4173 -1.3402
 2653SOL     OW 8014   0.805   4.302   4.125 -0.0594 -1.0137  0.1518
 2653SOL    HW1 8015   0.820   4.221   4.174 -0.0692 -0.7194  0.6409
 2653SOL    HW2 8016   0.728   4.341   4.166 -2.4020 -2.5606 -2.3926
 2654SOL     OW 8017   1.894   2.232   2.081  0.2659 -0.4624  0.2149
 2654SOL    HW1 8018   1.860   2.227   2.170 -1.6145 -0.9379 -0.4987
 2654SOL    HW2 8019   1.817   2.246   2.027  1.5599  1.9363 -1.1811
 2655SOL     OW 8020   1.526   0.327   3.828 -0.2580  0.5102  0.6279
 2655SOL    HW1 8021   1.441   0.327   3.785 -0.0574  1.5087  0.1917
 2655SOL    HW2 8022   1.507   0.341   3.920 -0.6052  0.0887  0.6182
 2656SOL     OW 8023   2.150   4.530   4.904 -0.3277 -0.4115  0.3511
 2656SOL    HW1 8024   2.137   4.622   4.929 -1.6295 -0.7246  0.9391
 2656SOL    HW2 8025   2.062   4.492   4.907  0.1414 -1.5915 -0.2528
 2657SOL     OW 8026   1.418   2.884   3.238  0.1910  0.1554 -0.0720
 2657SOL    HW1 8027   1.418   2.820   3.309  0.8911  0.1836 -0.0353
 2657SOL    HW2 8028   1.363   2.955   3.269 -1.6902 -0.9853 -0.6372
 2658SOL     OW 8029   2.143   1.314   3.257 -0.1354  0.1851 -0.4330
 2658SOL    HW1 8030   2.161   1.257   3.182 -0.5531  0.2178 -0.5617
 2658SOL    HW2 8031   2.088   1.261   3.315  1.4477 -0.3849  0.5842
 2659SOL     OW 8032   2.855   3.625   3.115 -0.8075 -0.1578 -0.2120
 2659SOL    HW1 8033   2.801   3.555   3.080  1.6208 -0.6307 -3.4078
 2659SOL    HW2 8034   2.912   3.582   3.179 -1.2931 -0.4574  0.0278
 2660SOL     OW 8035   1.910   0.133   4.295  0.2880 -0.1934 -0.8104
 2660SOL    HW1 8036   1.876   0.076   4.225 -1.1212 -0.1277 -0.2110
 2660SOL    HW2 8037   1.962   0.075   4.350  0.0429 -0.5902 -0.9943
 2661SOL     OW 8038   0.125   0.126   2.828 -0.4478  0.1751 -0.2578
 2661SOL    HW1 8039   0.086   0.040   2.817 -0.8858  0.4525 -0.8862
 2661SOL    HW2 8040   0.153   0.128   2.920 -0.8285 -0.4655 -0.1253
 2662SOL     OW 8041   1.236   3.177   4.158  0.0960 -0.3255 -0.1297
 2662SOL    HW1 8042   1.291   3.212   4.228 -1.5311  2.8575 -0.2669
 2662SOL    HW2 8043   1.281   3.203   4.078 -0.1694 -0.2177 -0.2444
 2663SOL     OW 8044   3.751   1.960   4.362 -0.5377  0.5658 -0.2114
 2663SOL    HW1 8045   3.818   1.892   4.352 -1.1784 -0.3984  1.5588
 2663SOL    HW2 8046   3.676   1.914   4.401 -1.2366  2.1592  0.4121
 2664SOL     OW 8047   1.682   2.296   1.692  0.4920 -0.2385  0.3455
 2664SOL    HW1 8048   1.699   2.332   1.779  1.9018  2.1265 -0.7994
 2664SOL    HW2 8049   1.766   2.302   1.646 -0.3003 -1.0473 -1.3386
 2665SOL     OW 8050   4.496   1.221   2.088 -0.4616 -0.5264  0.2812
 2665SOL    HW1 8051   4.573   1.230   2.032  0.1801  1.0773  1.3701
 2665SOL    HW2 8052   4.515   1.275   2.164 -2.2264 -0.9615  1.0740
 2666SOL     OW 8053   0.791   3.153   1.286  0.2544  0.0784  0.3755
 2666SOL    HW1 8054   0.796   3.153   1.190 -0.5576  1.3654  0.2997
 2666SOL    HW2 8055   0.830   3.070   1.312 -0.1451 -0.6206 -1.1051
 2667SOL     OW 8056   2.685   0.117   4.956 -0.1919 -0.7256  0.2724
 2667SOL    HW1 8057   2.632   0.151   4.884 -0.0148 -1.1328 -0.0541
 2667SOL    HW2 8058   2.644   0.152   5.035 -1.6026 -1.8966  0.0977
 2668SOL     OW 8059   3.141   4.279   2.545 -0.0639 -0.2300  0.1195
 2668SOL    HW1 8060   3.096   4.206   2.503  0.9700 -0.4179 -0.6870
 2668SOL    HW2 8061   3.194   4.238   2.613 -0.0694 -0.1428  0.1761
 2669SOL     OW 8062   0.232   4.828   1.518  0.0728  0.4250  0.2226
 2669SOL    HW1 8063   0.200   4.770   1.448 -1.6463 -0.2544  1.4977
 2669SOL    HW2 8064   0.315   4.862   1.485 -0.5035 -0.1514 -1.9870
 2670SOL     OW 8065   4.475   1.304   2.427 -0.2280 -0.1326 -0.0158
 2670SOL    HW1 8066   4.542   1.266   2.484 -0.3564 -0.0918  0.1617
 2670SOL    HW2 8067   4.482   1.398   2.441  0.0525 -0.0922 -0.4154
 2671SOL     OW 8068   4.501   0.907   3.479  1.1266  0.1943 -0.6504
 2671SOL    HW1 8069   4.463   0.865   3.401  1.6101 -1.0066 -0.2536
 2671SOL    HW2 8070   4.457   0.864   3.552  0.3294  1.6478 -0.2366
 2672SOL     OW 8071   2.991   3.777   4.504  0.2610  0.0340  0.0299
 2672SOL    HW1 8072   2.978   3.703   4.444  1.2796  0.0507 -0.2397
 2672SOL    HW2 8073   2.905   3.818   4.512 -0.2554 -0.9968 -0.0604
 2673SOL     OW 8074   3.550   1.145   2.752 -0.6847 -0.2923 -0.4468
 2673SOL    HW1 8075   3.548   1.149   2.847  0.0049  2.0187 -0.4585
 2673SOL    HW2 8076   3.468   1.185   2.724 -0.3656  0.1433 -0.7912
 2674SOL     OW 8077   0.577   3.741   3.506 -0.2338  0.2425  0.0328
 2674SOL    HW1 8078   0.632   3.728   3.583  0.1433  2.9410  0.3322
 2674SOL    HW2 8079   0.634   3.784   3.443 -1.2890  0.7071 -0.6405
 2675SOL     OW 8080   0.485   2.031   2.833 -0.1983 -0.0427 -0.4227
 2675SOL    HW1 8081   0.480   1.939   2.857  1.8286 -0.0982 -0.0460
 2675SOL    HW2 8082   0.479   2.031   2.737 -1.0446 -0.4747 -0.3771
 2676SOL     OW 8083   1.330   1.524   3.498 -0.0085 -0.1068  0.3569
 2676SOL    HW1 8084   1.265   1.558   3.437  1.5373 -1.5202 -2.2666
 2676SOL    HW2 8085   1.352   1.437   3.463  2.4973 -0.1212  1.7461
 2677SOL     OW 8086   4.580   1.645   3.994  0.1845 -0.1474 -0.4814
 2677SOL    HW1 8087   4.607   1.553   3.993 -0.0190 -0.2227  0.2660
 2677SOL    HW2 8088   4.655   1.692   3.958  1.7412 -0.2667  2.3061
 2678SOL     OW 8089   0.678   4.323   3.643 -0.0174 -0.3199  0.2044
 2678SOL    HW1 8090   0.625   4.336   3.565 -0.9206  1.9480  1.0881
 2678SOL    HW2 8091   0.762   4.363   3.621 -0.9550  2.3535  0.9822
 2679SOL     OW 8092   2.226   4.720   0.225 -0.0862  0.3192  0.3275
 2679SOL    HW1 8093   2.298   4.730   0.163 -0.6893 -0.1099 -0.4712
 2679SOL    HW2 8094   2.164   4.790   0.201 -1.5791 -1.4623 -1.3979
 2680SOL     OW 8095   2.184   1.689   1.394 -0.1513 -0.0822 -0.2276
 2680SOL    HW1 8096   2.165   1.695   1.488  0.0176 -2.3653  0.0213
 2680SOL    HW2 8097   2.247   1.759   1.378  0.2040  0.0452  1.4762
 2681SOL     OW 8098   4.774   2.306   0.383 -0.3628 -0.2746  0.0577
 2681SOL    HW1 8099   4.843   2.241   0.401 -0.4017 -0.1500  0.6975
 2681SOL    HW2 8100   4.811   2.389   0.415 -0.7105 -0.1647  0.1763
 2682SOL     OW 8101   4.754   3.460   0.300  0.1199  0.1845  0.1871
 2682SOL    HW1 8102   4.660   3.461   0.321 -0.1859  0.8868 -1.0905
 2682SOL    HW2 8103   4.798   3.464   0.385 -1.0161  1.0354  0.7551
 2683SOL     OW 8104   3.228   4.762   4.498 -0.0472  0.1719 -0.3179
 2683SOL    HW1 8105   3.157   4.724   4.446 -0.2219 -0.4591  0.3699
 2683SOL    HW2 8106   3.240   4.850   4.462 -1.1365  0.2660 -0.4785
 2684SOL     OW 8107   1.429   3.608   0.710  0.3486  0.0129 -0.3905
 2684SOL    HW1 8108   1.474   3.610   0.626  0.8482  1.5118 -0.1150
 2684SOL    HW2 8109   1.495   3.635   0.773 -0.5045  0.7013  0.2299
 2685SOL     OW 8110   2.061   4.817   4.925  0.0971 -0.0485  0.3707
 2685SOL    HW1 8111   2.043   4.860   5.009  1.0574 -0.9986  1.0878
 2685SOL    HW2 8112   2.143   4.856   4.896 -0.7630  1.0520 -0.6864
 2686SOL     OW 8113   0.924   3.039   3.837 -0.1747  0.3303 -0.6903
 2686SOL    HW1 8114   0.942   3.109   3.900  0.9854  1.4987 -2.2108
 2686SOL    HW2 8115   0.833   3.054   3.810 -0.1476  0.8446 -0.5053
 2687SOL     OW 8116   3.547   4.188   0.098 -0.1883 -0.6350  0.8135
 2687SOL    HW1 8117   3.473   4.219   0.151 -0.5591  2.2378 -1.1517
 2687SOL    HW2 8118   3.507   4.132   0.031 -0.7932  1.3358 -0.5709
 2688SOL     OW 8119   0.065   4.488   3.074 -0.2712 -0.2155 -0.1585
 2688SOL    HW1 8120   0.005   4.548   3.119 -0.6667  0.0874 -1.0749
 2688SOL    HW2 8121   0.147   4.496   3.123 -1.3381 -1.7549  2.0398
 2689SOL     OW 8122   3.825   2.570   0.419  0.0611 -0.0879  0.4510
 2689SOL    HW1 8123   3.880   2.493   0.433  0.4537  0.5524  2.9948
 2689SOL    HW2 8124   3.736   2.535   0.412  0.3916 -0.8679  0.0347
 2690SOL     OW 8125   1.647   2.619   2.746  0.5768 -0.5522  0.4594
 2690SOL    HW1 8126   1.643   2.546   2.684  0.6527  1.3747 -1.9436
 2690SOL    HW2 8127   1.568   2.608   2.800 -0.2627 -1.5272 -0.8973
 2691SOL     OW 8128   4.017   3.367   3.141 -0.2877 -0.0692  0.0462
 2691SOL    HW1 8129   3.968   3.351   3.060  0.3728 -0.8071 -0.2140
 2691SOL    HW2 8130   4.033   3.280   3.178 -0.9099  0.2805  1.1768
 2692SOL     OW 8131   4.485   2.227   2.027  0.5882  0.1754 -0.2090
 2692SOL    HW1 8132   4.447   2.314   2.036  0.9111  0.4566 -1.4051
 2692SOL    HW2 8133   4.578   2.243   2.009  0.5968 -0.3925 -0.7077
 2693SOL     OW 8134   0.409   1.315   0.355  0.4121 -0.5004  0.0314
 2693SOL    HW1 8135   0.314   1.324   0.357  0.3687  0.7823 -2.6842
 2693SOL    HW2 8136   0.435   1.306   0.446 -2.1874  0.5335  0.9600
 2694SOL     OW 8137   0.692   2.091   0.396  0.4520 -0.1077  0.3543
 2694SOL    HW1 8138   0.666   2.033   0.467 -2.6115 -0.6320 -1.0354
 2694SOL    HW2 8139   0.717   2.173   0.440 -0.1269 -0.8191  2.0942
 2695SOL     OW 8140   3.816   2.991   0.644 -0.2706 -0.0103 -0.8198
 2695SOL    HW1 8141   3.862   3.073   0.624 -0.4475  0.0143 -1.1383
 2695SOL    HW2 8142   3.861   2.956   0.721  0.0158  0.2219 -0.8804
 2696SOL     OW 8143   1.936   2.414   1.631 -0.0686 -0.2565  0.1587
 2696SOL    HW1 8144   1.920   2.483   1.566  0.0941 -0.5324 -0.1752
 2696SOL    HW2 8145   2.031   2.412   1.640 -0.0910 -0.2201  0.4086
 2697SOL     OW 8146   4.585   4.868   1.757 -0.4166 -0.4477 -0.1620
 2697SOL    HW1 8147   4.517   4.904   1.816 -0.3741  1.2143 -1.0589
 2697SOL    HW2 8148   4.666   4.908   1.788 -0.6936  2.4031 -2.7027
 2698SOL     OW 8149   2.283   0.737   0.733 -0.1132 -0.4083 -0.3375
 2698SOL    HW1 8150   2.208   0.762   0.679  0.1453  2.4089  0.4300
 2698SOL    HW2 8151   2.357   0.739   0.673 -0.0426  1.3242 -0.2593
 2699SOL     OW 8152   2.545   4.149   0.419 -0.2527  0.1518  0.5908
 2699SOL    HW1 8153   2.565   4.179   0.330 -1.6321 -0.6824 -0.0265
 2699SOL    HW2 8154   2.618   4.183   0.472  1.7246 -1.0814 -1.1729
 2700SOL     OW 8155   2.565   3.650   2.774  0.3222 -0.2722 -0.1741
 2700SOL    HW1 8156   2.599   3.570   2.733 -0.4892 -0.2809 -0.8609
 2700SOL    HW2 8157   2.637   3.712   2.769  1.0252 -0.9970  0.5151
 2701SOL     OW 8158   3.594  -0.011   0.977 -0.1355 -0.1570 -0.1330
 2701SOL    HW1 8159   3.596   0.030   0.890 -1.1920 -0.7905 -0.4651
 2701SOL    HW2 8160   3.502  -0.015   1.000  0.0541 -1.0574  0.5192
 2702SOL     OW 8161   4.970   1.989   4.628 -0.6790  0.5246 -0.0894
 2702SOL    HW1 8162   4.921   2.071   4.633 -0.5045  0.5567  2.1332
 2702SOL    HW2 8163   4.963   1.951   4.716  2.0637 -0.1847 -0.0821
 2703SOL     OW 8164   4.726   0.223   0.564 -0.0049 -0.1278 -0.0706
 2703SOL    HW1 8165   4.748   0.133   0.589 -3.0987 -0.7306  1.0158
 2703SOL    HW2 8166   4.690   0.215   0.476  2.3340  0.5702 -1.1561
 2704SOL     OW 8167   1.493   1.390   1.383  0.1404  0.1513 -0.0714
 2704SOL    HW1 8168   1.588   1.403   1.382  0.4081 -1.5536  0.3758
 2704SOL    HW2 8169   1.463   1.425   1.299  1.1198  0.9208 -0.1186
 2705SOL     OW 8170   3.629   0.938   4.534  0.0796  0.1031 -0.5385
 2705SOL    HW1 8171   3.648   0.868   4.472 -0.0797  0.0855 -0.5676
 2705SOL    HW2 8172   3.543   0.972   4.507  0.5180  0.8542 -1.0219
 2706SOL     OW 8173   0.892   2.924   1.404  0.4549 -0.0741 -0.6189
 2706SOL    HW1 8174   0.976   2.898   1.368  0.5803  0.3938 -0.6695
 2706SOL    HW2 8175   0.912   2.993   1.467  0.2820 -1.1658  0.6923
 2707SOL     OW 8176   0.965   3.521   2.141  0.0878  0.2238  0.5659
 2707SOL    HW1 8177   0.888   3.577   2.150  0.4525  0.8308  0.0157
 2707SOL    HW2 8178   1.040   3.580   2.150  0.4862  0.1013 -1.3591
 2708SOL     OW 8179   0.824   1.811   3.617  0.1676  0.3603  0.2004
 2708SOL    HW1 8180   0.907   1.840   3.655 -0.1585  0.8634  0.5480
 2708SOL    HW2 8181   0.768   1.795   3.693  0.0034 -0.1577 -0.0296
 2709SOL     OW 8182   1.033   2.093   2.312 -0.2255  0.6600  0.2556
 2709SOL    HW1 8183   1.059   2.047   2.232 -1.5775  0.8094 -0.2885
 2709SOL    HW2 8184   1.094   2.166   2.318  0.1648  0.4002 -0.3928
 2710SOL     OW 8185   0.780   3.670   2.265  0.2608 -0.9359 -0.0152
 2710SOL    HW1 8186   0.727   3.646   2.342 -0.7353 -0.0547 -0.3957
 2710SOL    HW2 8187   0.716   3.705   2.202  1.2227 -0.4559 -0.7549
 2711SOL     OW 8188   1.167   0.091   2.000 -0.6777 -0.1457  0.3589
 2711SOL    HW1 8189   1.149   0.035   2.077  0.3999 -0.6905  0.2348
 2711SOL    HW2 8190   1.258   0.120   2.013 -0.1496 -1.0080 -1.1582
 2712SOL     OW 8191   3.983   3.389   1.859  0.9968  0.3725  0.0840
 2712SOL    HW1 8192   4.051   3.410   1.795 -0.2286  0.2028 -1.3221
 2712SOL    HW2 8193   4.003   3.300   1.887  2.2997  0.9082  0.9680
 2713SOL     OW 8194   3.070   2.959   2.133  0.1522  0.0969 -0.2927
 2713SOL    HW1 8195   3.109   2.964   2.221 -1.2964 -1.0345  0.4781
 2713SOL    HW2 8196   3.042   3.048   2.114  0.3584  0.3356  0.4689
 2714SOL     OW 8197   0.884   3.655   2.879  0.4471 -0.2346  0.0012
 2714SOL    HW1 8198   0.930   3.735   2.852 -0.0696 -0.0289 -0.2837
 2714SOL    HW2 8199   0.897   3.594   2.806  0.1575 -0.1291 -0.1404
 2715SOL     OW 8200   2.483   4.525   1.231  0.0262 -0.2189  0.5963
 2715SOL    HW1 8201   2.515   4.547   1.144 -0.8514  0.3213  0.3968
 2715SOL    HW2 8202   2.482   4.429   1.232 -0.0047 -0.2287 -0.0111
 2716SOL     OW 8203   3.269   3.688   1.249  0.2146  0.1825  0.0576
 2716SOL    HW1 8204   3.210   3.683   1.174 -0.8503  1.6038  0.7426
 2716SOL    HW2 8205   3.301   3.779   1.247  0.1417  0.2453  1.3379
 2717SOL     OW 8206   3.344   0.269   4.120  0.2413 -0.2411 -0.2012
 2717SOL    HW1 8207   3.372   0.180   4.140 -0.5756 -0.5419 -0.3504
 2717SOL    HW2 8208   3.289   0.260   4.042 -1.1895  0.1462  0.7094
 2718SOL     OW 8209   2.852   1.296   1.018  0.1157 -0.8614 -0.1155
 2718SOL    HW1 8210   2.811   1.332   0.939  0.6165 -0.1598 -0.0711
 2718SOL    HW2 8211   2.880   1.374   1.067  2.8661 -1.2694 -0.8629
 2719SOL     OW 8212   3.455   0.459   2.844  0.1173 -0.7374  0.8190
 2719SOL    HW1 8213   3.477   0.394   2.778 -1.4818 -0.9631  0.4558
 2719SOL    HW2 8214   3.539   0.483   2.884  0.7826 -2.8488  0.8101
 2720SOL     OW 8215   3.659   1.043   1.733  0.2902  0.4350  0.3334
 2720SOL    HW1 8216   3.659   0.965   1.678 -2.1058  0.0564  0.7574
 2720SOL    HW2 8217   3.610   1.108   1.682 -1.3942  0.2864  1.6377
 2721SOL     OW 8218   3.569   2.208   3.604  0.2682 -0.1018 -0.4556
 2721SOL    HW1 8219   3.510   2.223   3.530  1.1428  1.6603 -0.8341
 2721SOL    HW2 8220   3.510   2.188   3.677 -0.8931  2.1193 -0.6985
 2722SOL     OW 8221   0.810   4.024   1.581 -0.6939 -0.3590 -0.4969
 2722SOL    HW1 8222   0.888   4.076   1.599 -0.6997  0.0960 -1.6957
 2722SOL    HW2 8223   0.764   4.019   1.665 -0.1068  0.5782 -0.1087
 2723SOL     OW 8224   3.577   2.649   3.892 -0.2728  0.1269  0.1193
 2723SOL    HW1 8225   3.551   2.697   3.970 -2.1925  0.5094 -0.6989
 2723SOL    HW2 8226   3.671   2.635   3.902 -0.3545  0.7648  2.1477
 2724SOL     OW 8227   3.946   1.036   0.852 -0.2649 -0.3563 -0.1247
 2724SOL    HW1 8228   3.973   1.117   0.809  1.0733 -0.2304  0.9014
 2724SOL    HW2 8229   4.017   1.015   0.912 -1.7876 -0.8402  1.6067
 2725SOL     OW 8230   3.661   0.481   3.389  0.0896 -0.2424 -0.4375
 2725SOL    HW1 8231   3.745   0.528   3.394  0.0460 -0.2134  0.0662
 2725SOL    HW2 8232   3.595   0.549   3.384  0.0561 -0.2543 -0.1764
 2726SOL     OW 8233   2.981   3.139   0.607  0.3796  0.3687 -0.0662
 2726SOL    HW1 8234   3.013   3.052   0.631 -1.1289  0.1398  1.2912
 2726SOL    HW2 8235   2.965   3.182   0.691  2.2524  2.4536 -0.6690
 2727SOL     OW 8236   1.607   0.709   2.736 -0.0147 -0.2288 -0.6127
 2727SOL    HW1 8237   1.669   0.774   2.703  0.1414  1.6934  2.9711
 2727SOL    HW2 8238   1.522   0.754   2.734 -0.1292 -0.3542  0.7382
 2728SOL     OW 8239   2.343   4.827   2.912 -0.1751  0.2207 -0.7295
 2728SOL    HW1 8240   2.410   4.760   2.919 -0.8690 -0.4226 -0.1010
 2728SOL    HW2 8241   2.261   4.778   2.905 -0.5636  0.9857 -1.8506
 2729SOL     OW 8242   3.430   0.116   1.343 -0.4153 -0.6932  0.0805
 2729SOL    HW1 8243   3.515   0.141   1.309 -1.4152  0.4459 -1.7255
 2729SOL    HW2 8244   3.440   0.024   1.369  1.5945 -0.2967  0.8671
 2730SOL     OW 8245   2.148   3.770   3.598 -0.4825  0.2802  0.5102
 2730SOL    HW1 8246   2.081   3.835   3.575 -0.8463  0.0010  0.7717
 2730SOL    HW2 8247   2.158   3.717   3.519 -0.2708  0.5830  0.3345
 2731SOL     OW 8248   2.689   2.715   1.406  0.2909 -0.1245  0.1947
 2731SOL    HW1 8249   2.734   2.790   1.444  1.6346  1.4212 -3.8618
 2731SOL    HW2 8250   2.759   2.654   1.383 -0.4543 -1.0539  0.3404
 2732SOL     OW 8251   1.268   4.082   2.200  0.0372 -0.2900  0.0495
 2732SOL    HW1 8252   1.186   4.124   2.228  0.4380 -0.4399  1.5335
 2732SOL    HW2 8253   1.335   4.121   2.256  0.8099 -1.0263 -0.3498
 2733SOL     OW 8254   0.526   1.156   4.272  0.5745  0.1016  0.2734
 2733SOL    HW1 8255   0.518   1.197   4.358  1.4091  1.8746 -0.4524
 2733SOL    HW2 8256   0.441   1.172   4.230  0.8044  0.8873  0.0932
 2734SOL     OW 8257   1.591   2.624   3.312 -0.5910 -0.4709 -0.1714
 2734SOL    HW1 8258   1.551   2.692   3.367  0.7452  0.1587  0.0651
 2734SOL    HW2 8259   1.679   2.657   3.295 -0.1440 -1.8538 -0.5947
 2735SOL     OW 8260   2.950   0.890   1.382  0.2492  0.7663  0.8344
 2735SOL    HW1 8261   2.964   0.854   1.470 -1.3401 -0.4558  0.6552
 2735SOL    HW2 8262   2.963   0.984   1.391  0.0900  0.6618  2.3931
 2736SOL     OW 8263   1.818   0.682   3.648 -0.0270 -0.0800 -0.2159
 2736SOL    HW1 8264   1.740   0.638   3.614 -0.5720 -0.2281  1.1322
 2736SOL    HW2 8265   1.862   0.615   3.701 -1.1175  1.0065  2.2593
 2737SOL     OW 8266   4.885   0.957   3.369 -0.1919 -0.3276  0.9251
 2737SOL    HW1 8267   4.861   0.912   3.450 -0.6489  0.5276  1.2900
 2737SOL    HW2 8268   4.803   0.998   3.340  0.0178 -0.4595  0.1378
 2738SOL     OW 8269   1.619   3.090   4.213 -0.0646  0.2521  0.0648
 2738SOL    HW1 8270   1.576   3.175   4.224  0.0389  0.3091  0.0336
 2738SOL    HW2 8271   1.694   3.092   4.273  0.7767  0.7552 -0.9639
 2739SOL     OW 8272   1.854   4.621   2.960  0.3297 -0.0923 -0.6763
 2739SOL    HW1 8273   1.839   4.570   3.039  1.0080 -2.9752 -2.2656
 2739SOL    HW2 8274   1.775   4.606   2.907  0.3487  0.8865 -0.9977
 2740SOL     OW 8275   4.017   0.385   0.683 -0.2125 -0.2469 -0.5314
 2740SOL    HW1 8276   4.071   0.431   0.618 -0.7744 -0.4688 -1.1662
 2740SOL    HW2 8277   3.993   0.453   0.746 -0.0459  0.0747 -0.8088
 2741SOL     OW 8278   4.391   3.664   0.264 -0.1336  0.0922 -0.0647
 2741SOL    HW1 8279   4.391   3.750   0.305 -0.0617 -0.0322  0.1991
 2741SOL    HW2 8280   4.329   3.671   0.191  0.0594  0.4374 -0.1963
 2742SOL     OW 8281   2.415   1.803   3.056 -0.4126  0.3624  0.0813
 2742SOL    HW1 8282   2.393   1.861   3.129  0.5190 -2.0664  2.4680
 2742SOL    HW2 8283   2.504   1.773   3.076 -0.3463 -0.8363 -1.7971
 2743SOL     OW 8284   1.288   2.752   2.757  0.5523  0.7413  0.0020
 2743SOL    HW1 8285   1.233   2.689   2.804  0.6112  1.6330  1.3155
 2743SOL    HW2 8286   1.275   2.731   2.664 -0.8146 -0.0502  0.3477
 2744SOL     OW 8287   0.925   4.559   1.864  0.4055  0.1928 -0.0902
 2744SOL    HW1 8288   0.974   4.638   1.888  0.5583  0.3743 -0.9730
 2744SOL    HW2 8289   0.953   4.539   1.775 -0.0749 -0.5237 -0.0932
 2745SOL     OW 8290   1.674   1.006   0.548 -0.5863  0.7455  0.4379
 2745SOL    HW1 8291   1.766   1.032   0.550 -0.1674 -0.6913  1.0659
 2745SOL    HW2 8292   1.630   1.075   0.498  1.3721 -0.1061 -2.7309
 2746SOL     OW 8293   2.743   0.801   3.274  0.2205 -0.4051 -0.1350
 2746SOL    HW1 8294   2.796   0.723   3.258 -0.1644 -0.9507  1.1304
 2746SOL    HW2 8295   2.655   0.768   3.290  0.1874  0.2095  1.1012
 2747SOL     OW 8296   2.325   2.545   0.111 -0.2893 -0.4547 -0.2238
 2747SOL    HW1 8297   2.304   2.638   0.103  0.3540 -0.3285 -0.5614
 2747SOL    HW2 8298   2.396   2.541   0.175  1.2850 -0.4458 -1.8859
 2748SOL     OW 8299   4.768   3.239   4.277 -0.2229 -0.4719 -0.4995
 2748SOL    HW1 8300   4.720   3.273   4.201 -1.1371  0.4289  0.4540
 2748SOL    HW2 8301   4.753   3.145   4.274 -1.7840 -0.2437 -0.4139
 2749SOL     OW 8302   2.753   4.837   0.091  0.2319  0.4120  0.5275
 2749SOL    HW1 8303   2.772   4.925   0.058  1.4840  1.2195  3.1725
 2749SOL    HW2 8304   2.828   4.785   0.061  0.0688  0.4986 -0.0550
 2750SOL     OW 8305   1.241   1.193   0.726  0.5176 -0.4329 -0.1267
 2750SOL    HW1 8306   1.158   1.240   0.715  1.4997  1.4774  0.1186
 2750SOL    HW2 8307   1.294   1.252   0.781  1.7731 -1.9441  0.3502
 2751SOL     OW 8308   1.753   4.030   0.521  0.3375  0.0805  0.1144
 2751SOL    HW1 8309   1.845   4.026   0.494  0.2107 -0.0637 -0.3040
 2751SOL    HW2 8310   1.739   3.950   0.571  0.4395  0.0972  0.1691
 2752SOL     OW 8311   0.337   4.412   0.068  0.3689 -0.0786 -0.0721
 2752SOL    HW1 8312   0.276   4.461   0.123 -0.0480 -0.2751 -0.3571
 2752SOL    HW2 8313   0.410   4.391   0.126  0.9770  1.6195 -0.1444
 2753SOL     OW 8314   3.638   2.318   3.959  0.7880 -0.4619  0.1634
 2753SOL    HW1 8315   3.600   2.241   4.003 -0.5033 -0.2573 -0.5314
 2753SOL    HW2 8316   3.594   2.321   3.874  0.8794  0.9773  0.1357
 2754SOL     OW 8317   2.041  -0.016   0.194 -0.0794 -0.2662  0.3210
 2754SOL    HW1 8318   2.019   0.076   0.180 -0.3714 -0.5196 -1.0509
 2754SOL    HW2 8319   2.119  -0.015   0.249  0.1273  0.8089  0.0135
 2755SOL     OW 8320   1.534   4.603   1.534  0.7183 -0.4281  0.7703
 2755SOL    HW1 8321   1.626   4.627   1.523  0.2307  2.3932  2.0375
 2755SOL    HW2 8322   1.523   4.590   1.628 -0.5008  1.0078  0.8650
 2756SOL     OW 8323   3.224   0.672   4.264  0.0450 -0.3838  0.5876
 2756SOL    HW1 8324   3.243   0.671   4.358 -1.6984  0.2643  0.9873
 2756SOL    HW2 8325   3.150   0.612   4.253 -0.7100  0.6285 -0.1240
 2757SOL     OW 8326   2.008   0.409   0.620  0.5437 -0.5975  0.7928
 2757SOL    HW1 8327   2.086   0.455   0.589  0.4136 -0.3668  0.8074
 2757SOL    HW2 8328   2.038   0.363   0.700  1.6021 -3.3806 -1.0272
 2758SOL     OW 8329   2.740   2.359   3.530  0.2128 -0.4694 -0.0401
 2758SOL    HW1 8330   2.770   2.446   3.504 -0.7311 -0.5410 -1.4744
 2758SOL    HW2 8331   2.702   2.322   3.450  0.4490 -2.1415  0.5841
 2759SOL     OW 8332   1.935   0.596   0.270  0.0068  0.0841 -0.1074
 2759SOL    HW1 8333   1.871   0.622   0.336  0.1158 -1.6262  0.7135
 2759SOL    HW2 8334   1.884   0.551   0.203 -0.0589  1.5409 -1.0925
 2760SOL     OW 8335   0.823   0.650   3.052  0.3841  0.1034 -0.1782
 2760SOL    HW1 8336   0.870   0.631   2.971  1.3618 -0.4501  0.4936
 2760SOL    HW2 8337   0.864   0.593   3.118 -1.8206 -1.0950  0.2842
 2761SOL     OW 8338   3.870   1.795   0.711 -0.0515 -0.0678  0.1135
 2761SOL    HW1 8339   3.946   1.789   0.770 -1.1872 -3.0753  1.4888
 2761SOL    HW2 8340   3.876   1.883   0.673  3.6561  0.1157  0.7247
 2762SOL     OW 8341   2.483   4.590   2.919  0.0240  0.0237 -0.4767
 2762SOL    HW1 8342   2.445   4.508   2.888  1.0268 -1.0858  1.1024
 2762SOL    HW2 8343   2.542   4.617   2.848 -0.3495 -0.5992 -1.0357
 2763SOL     OW 8344   0.702   4.596   3.299 -0.1891  0.0354  0.1704
 2763SOL    HW1 8345   0.719   4.579   3.207  0.1067  0.5190  0.1290
 2763SOL    HW2 8346   0.608   4.608   3.305 -0.2653 -0.5020  0.0185
 2764SOL     OW 8347   1.448   3.702   2.277  0.0754  0.9317  0.3603
 2764SOL    HW1 8348   1.503   3.682   2.353 -0.0472  2.1318  0.7846
 2764SOL    HW2 8349   1.362   3.719   2.314 -0.1810  0.7268 -0.1360
 2765SOL     OW 8350   0.722   3.696   4.295  0.1297 -0.0337  0.6490
 2765SOL    HW1 8351   0.794   3.744   4.254 -0.4898  0.4885  0.1452
 2765SOL    HW2 8352   0.764   3.627   4.346  0.9328 -0.2949 -0.3617
 2766SOL     OW 8353   2.150   3.072   0.484  0.1142  0.0988 -0.0089
 2766SOL    HW1 8354   2.195   3.105   0.561 -0.2474  0.6100 -0.0107
 2766SOL    HW2 8355   2.071   3.126   0.477  0.3872  0.3900 -1.0158
 2767SOL     OW 8356   0.332   0.875   4.837  0.6113 -0.0771 -0.5443
 2767SOL    HW1 8357   0.307   0.947   4.895  1.3929 -1.0992  1.1561
 2767SOL    HW2 8358   0.255   0.820   4.831  0.0731  0.7497 -1.6933
 2768SOL     OW 8359   2.550   4.388   4.567 -0.0421 -0.5167 -0.1290
 2768SOL    HW1 8360   2.543   4.449   4.494 -1.7290  0.4724  0.7927
 2768SOL    HW2 8361   2.623   4.331   4.544 -1.2171 -0.9831 -3.1103
 2769SOL     OW 8362   1.967   4.154   3.131 -0.8210  0.3889  0.1882
 2769SOL    HW1 8363   1.910   4.213   3.082  0.2413  1.2920  0.0047
 2769SOL    HW2 8364   2.055   4.187   3.116 -0.3400 -0.2273  1.4823
 2770SOL     OW 8365   1.469   1.964   4.613 -0.1689 -0.0465 -0.3111
 2770SOL    HW1 8366   1.448   1.951   4.706 -0.6424 -0.0458 -0.4119
 2770SOL    HW2 8367   1.440   1.883   4.571  1.1114 -0.5206 -0.3045
 2771SOL     OW 8368   3.560   4.821   4.565  0.2191  0.0662  0.2118
 2771SOL    HW1 8369   3.609   4.761   4.622 -0.2289 -1.4635 -0.9360
 2771SOL    HW2 8370   3.624   4.887   4.539  1.8267 -2.0090 -1.4446
 2772SOL     OW 8371   3.706   1.394   0.048 -0.1810  0.4485 -0.3078
 2772SOL    HW1 8372   3.793   1.430   0.069  0.7238 -2.3879  1.3697
 2772SOL    HW2 8373   3.722   1.335  -0.025 -0.0962 -1.9891  1.5707
 2773SOL     OW 8374   0.275   1.947   1.202 -0.1617  0.1604 -0.3004
 2773SOL    HW1 8375   0.209   2.001   1.159  0.4083  1.4609  0.3992
 2773SOL    HW2 8376   0.238   1.930   1.289  0.9081  1.9301  0.5451
 2774SOL     OW 8377   4.071   1.697   2.882 -0.4074 -0.4936 -0.5544
 2774SOL    HW1 8378   3.994   1.748   2.907  0.2582  0.8469 -1.1633
 2774SOL    HW2 8379   4.046   1.654   2.800 -0.1483  0.8661 -1.3763
 2775SOL     OW 8380   2.289   2.214   4.361  0.3420 -0.1540  0.4534
 2775SOL    HW1 8381   2.343   2.163   4.300  0.4467 -0.5697  0.8885
 2775SOL    HW2 8382   2.346   2.229   4.436  0.1495  0.1978  0.5327
 2776SOL     OW 8383   0.757   2.018   2.426 -0.2926 -0.1100  0.6422
 2776SOL    HW1 8384   0.840   2.057   2.399  0.3426 -0.4809  1.9779
 2776SOL    HW2 8385   0.749   1.939   2.372  0.2592 -0.1190  0.5703
 2777SOL     OW 8386   3.648   1.119   3.744  0.3238  0.2055 -0.0749
 2777SOL    HW1 8387   3.568   1.145   3.791  0.9772 -0.2711  1.3743
 2777SOL    HW2 8388   3.622   1.115   3.652 -1.1074  0.8586  0.2678
 2778SOL     OW 8389   2.199   3.662   3.338 -0.7338  0.6402 -0.2908
 2778SOL    HW1 8390   2.245   3.579   3.346 -1.0426  0.4383 -0.5506
 2778SOL    HW2 8391   2.253   3.715   3.279 -1.3044  0.0503 -1.3838
 2779SOL     OW 8392   2.961   0.515   2.826 -0.4542 -0.5690 -0.1846
 2779SOL    HW1 8393   2.917   0.452   2.768  1.1124 -1.5939 -0.3159
 2779SOL    HW2 8394   2.942   0.483   2.914 -0.6970 -0.5021 -0.2126
 2780SOL     OW 8395   3.625   1.390   0.742  0.0501 -0.2169  0.0634
 2780SOL    HW1 8396   3.537   1.373   0.708 -0.0057  0.8349 -0.3535
 2780SOL    HW2 8397   3.670   1.306   0.737 -0.5953 -0.5170 -0.7463
 2781SOL     OW 8398   2.733   0.329   2.911 -0.1185  0.7288 -0.0970
 2781SOL    HW1 8399   2.706   0.348   3.001  0.5351 -0.4511  0.3637
 2781SOL    HW2 8400   2.765   0.239   2.914 -0.5502  0.4988 -1.6245
 2782SOL     OW 8401   1.449   3.701   1.322 -0.0081  0.3358 -0.0408
 2782SOL    HW1 8402   1.410   3.626   1.366 -0.0597  0.0580 -0.5535
 2782SOL    HW2 8403   1.375   3.758   1.302  0.0879  0.7850  0.8227
 2783SOL     OW 8404   0.096   3.813   1.298 -0.6473 -0.2570 -0.6832
 2783SOL    HW1 8405   0.168   3.872   1.275 -0.5768  0.0698  0.3356
 2783SOL    HW2 8406   0.107   3.739   1.238  4.1466 -3.0917  2.9155
 2784SOL     OW 8407   2.201   3.642   4.188  0.4317 -0.3820  0.3407
 2784SOL    HW1 8408   2.228   3.695   4.263 -0.3523 -1.2166  1.2425
 2784SOL    HW2 8409   2.115   3.677   4.164  1.6826  1.4599 -1.7331
 2785SOL     OW 8410   3.189   3.688   2.129 -0.1037  0.7001 -0.5360
 2785SOL    HW1 8411   3.246   3.639   2.188 -0.1730  1.2298 -0.0235
 2785SOL    HW2 8412   3.101   3.670   2.161 -0.2340 -0.0235 -1.2560
 2786SOL     OW 8413   0.045   0.952   2.131  0.2611  0.3788 -0.5346
 2786SOL    HW1 8414   0.126   0.918   2.093  0.0888 -0.2882 -0.3211
 2786SOL    HW2 8415   0.054   1.047   2.126  1.2420  0.3224 -0.1197
 2787SOL     OW 8416   2.149   4.861   2.577 -0.1561 -0.0307 -0.2318
 2787SOL    HW1 8417   2.244   4.864   2.582 -0.1617  1.5726 -0.5836
 2787SOL    HW2 8418   2.127   4.769   2.593  1.4472 -0.4560 -0.3035
 2788SOL     OW 8419   2.724   1.767   0.003 -0.1513  0.0148 -0.3675
 2788SOL    HW1 8420   2.740   1.859   0.023  0.2761 -0.0059 -0.5946
 2788SOL    HW2 8421   2.639   1.748   0.041  0.8000 -0.1361  1.8423
 2789SOL     OW 8422   4.709   1.180   1.095 -0.3227  0.7046  0.3137
 2789SOL    HW1 8423   4.778   1.149   1.153 -0.6465 -1.5665 -0.3956
 2789SOL    HW2 8424   4.628   1.143   1.132 -0.6231 -0.1477 -1.1158
 2790SOL     OW 8425   1.128   2.907  -0.009 -0.3879 -0.0668 -0.0123
 2790SOL    HW1 8426   1.065   2.870  -0.069 -1.1649  0.5556  0.3957
 2790SOL    HW2 8427   1.095   2.884   0.078  0.6863 -0.9060  0.1966
 2791SOL     OW 8428   3.698   4.434   3.119  0.4438 -0.4152 -0.4649
 2791SOL    HW1 8429   3.773   4.487   3.094  1.0256 -0.4333  1.0911
 2791SOL    HW2 8430   3.725   4.344   3.103  0.6103 -0.3979 -0.2875
 2792SOL     OW 8431   1.543   2.451   3.967  0.0983  0.3884  0.4224
 2792SOL    HW1 8432   1.468   2.481   4.018 -0.7747 -0.9927 -0.0041
 2792SOL    HW2 8433   1.514   2.370   3.925  1.9478 -0.4015  0.5410
 2793SOL     OW 8434   2.766   2.648   4.939  0.4340  0.3711  0.1778
 2793SOL    HW1 8435   2.711   2.693   5.002  3.2389  1.9863  1.6882
 2793SOL    HW2 8436   2.834   2.712   4.917  2.5158 -1.8901 -0.4635
 2794SOL     OW 8437   2.362   1.470   4.345 -0.4367 -0.0852 -0.3757
 2794SOL    HW1 8438   2.372   1.431   4.258 -2.7806  0.3180 -0.9010
 2794SOL    HW2 8439   2.430   1.429   4.398  2.7925  1.5140 -2.9316
 2795SOL     OW 8440   2.618   2.688   3.655  0.3171  0.4665  0.4329
 2795SOL    HW1 8441   2.610   2.609   3.602  1.0847  0.3204  0.5167
 2795SOL    HW2 8442   2.537   2.736   3.640  0.4775  0.3801 -0.7968
 2796SOL     OW 8443   2.930   4.183   1.206  0.1259 -0.1202  0.0220
 2796SOL    HW1 8444   2.920   4.104   1.260  0.6363 -0.5337 -0.4687
 2796SOL    HW2 8445   3.015   4.219   1.233  1.2276 -1.2945 -1.6885
 2797SOL     OW 8446   3.977   2.594   4.427 -0.5140 -0.4989 -0.6798
 2797SOL    HW1 8447   3.936   2.555   4.504 -1.1593  2.3588  0.5321
 2797SOL    HW2 8448   3.906   2.599   4.363 -1.0677  0.7960  0.0078
 2798SOL     OW 8449   1.308   1.349   0.926 -0.4483 -0.1682 -0.0273
 2798SOL    HW1 8450   1.360   1.279   0.965  3.2550  1.6983 -1.1828
 2798SOL    HW2 8451   1.293   1.411   0.998 -0.1497 -0.2215  0.0819
 2799SOL     OW 8452   3.183   3.990   4.788 -0.1052  0.0891 -0.1156
 2799SOL    HW1 8453   3.090   3.973   4.801 -0.1658  0.5450  0.0585
 2799SOL    HW2 8454   3.206   3.938   4.711 -1.1229  1.9768 -1.7857
 2800SOL     OW 8455   2.153   4.284   0.104  0.0884 -0.2785 -0.3196
 2800SOL    HW1 8456   2.218   4.234   0.053  0.3254 -1.2304  0.8806
 2800SOL    HW2 8457   2.191   4.290   0.191 -1.7711 -1.5180  0.6230
 2801SOL     OW 8458   4.956   2.825   2.779 -0.4251 -0.0960 -0.1481
 2801SOL    HW1 8459   5.025   2.884   2.809 -1.6275  0.7242  1.1032
 2801SOL    HW2 8460   4.911   2.798   2.859 -1.6589 -0.4927 -0.9449
 2802SOL     OW 8461   1.149   0.670   0.320 -0.0861 -0.4362 -0.0753
 2802SOL    HW1 8462   1.124   0.606   0.253 -0.5305  0.5498 -0.8804
 2802SOL    HW2 8463   1.086   0.741   0.310 -1.1231 -0.8869  2.3977
 2803SOL     OW 8464   1.792   4.693   1.492  0.3299  0.0079  0.0197
 2803SOL    HW1 8465   1.884   4.702   1.465  1.1770 -2.4535  1.7058
 2803SOL    HW2 8466   1.792   4.711   1.586 -1.0979  0.7978 -0.1036
 2804SOL     OW 8467   0.241   1.421   3.544  0.1047 -0.6980 -0.1419
 2804SOL    HW1 8468   0.237   1.326   3.541 -0.5316 -0.7022  0.5633
 2804SOL    HW2 8469   0.300   1.445   3.472  0.3070 -1.6185 -0.2935
 2805SOL     OW 8470   0.724   1.910   0.598  0.2183 -0.4144  0.0862
 2805SOL    HW1 8471   0.687   1.834   0.553  0.5524 -0.3623 -0.2894
 2805SOL    HW2 8472   0.816   1.886   0.613  0.3076 -0.1154  0.0282
 2806SOL     OW 8473   0.028   1.579   4.005  0.2265  0.2444 -0.0939
 2806SOL    HW1 8474   0.025   1.542   3.916  0.8130  3.2161 -1.4799
 2806SOL    HW2 8475   0.019   1.503   4.063 -0.8774 -1.7447 -2.6715
 2807SOL     OW 8476   2.161   0.665   0.023 -0.3479 -0.8445 -0.3368
 2807SOL    HW1 8477   2.250   0.630   0.030 -0.1345 -0.1497  0.7893
 2807SOL    HW2 8478   2.172   0.752  -0.014 -0.1303  0.5808  2.7050
 2808SOL     OW 8479   2.171   0.385   0.317 -0.1627  0.6246  0.3572
 2808SOL    HW1 8480   2.218   0.461   0.282  0.3387  0.2302  0.1528
 2808SOL    HW2 8481   2.208   0.373   0.405 -1.0065  1.2618  0.8099
 2809SOL     OW 8482   1.787   2.023   3.434  0.9604  0.0919  0.8933
 2809SOL    HW1 8483   1.705   2.066   3.460  0.4313 -1.0407  1.1382
 2809SOL    HW2 8484   1.768   1.987   3.348  1.0533 -0.5593  1.1429
 2810SOL     OW 8485   2.369   0.995   1.562 -0.3846 -0.0201 -0.1429
 2810SOL    HW1 8486   2.421   0.927   1.519 -0.7486  0.4348 -1.3603
 2810SOL    HW2 8487   2.419   1.076   1.548 -1.5539  0.4903 -1.6762
 2811SOL     OW 8488   1.381   1.234   3.426 -0.3820  0.1579 -0.6604
 2811SOL    HW1 8489   1.293   1.209   3.453  0.0457 -1.2289 -0.4514
 2811SOL    HW2 8490   1.439   1.175   3.475  0.6141  0.4364 -1.4592
 2812SOL     OW 8491   4.904   0.764   1.436 -0.3143 -0.1553 -0.2008
 2812SOL    HW1 8492   4.864   0.697   1.380  0.4437 -1.0085  0.2475
 2812SOL    HW2 8493   4.998   0.746   1.432 -0.0256  1.2843 -0.5541
 2813SOL     OW 8494   4.185   3.068   1.727  0.4454  0.7654  0.3973
 2813SOL    HW1 8495   4.193   3.005   1.655 -1.6615  0.9869 -0.1015
 2813SOL    HW2 8496   4.224   3.148   1.692 -0.4518  0.8368 -0.4696
 2814SOL     OW 8497   0.630   3.145   1.993  0.1097  0.1019  0.2637
 2814SOL    HW1 8498   0.593   3.226   1.957  0.6282 -0.1243 -0.8316
 2814SOL    HW2 8499   0.698   3.120   1.931  0.0322 -1.1264  0.6357
 2815SOL     OW 8500   4.382   2.989   4.023  0.6730 -0.0311  0.1273
 2815SOL    HW1 8501   4.474   2.969   4.042  1.0293  1.4463  0.0662
 2815SOL    HW2 8502   4.378   2.994   3.927  0.2642 -1.1895  0.0662
 2816SOL     OW 8503   4.706   3.773   0.282 -0.3408 -0.1771 -0.0073
 2816SOL    HW1 8504   4.801   3.769   0.288 -0.2265  1.1609 -0.6947
 2816SOL    HW2 8505   4.683   3.700   0.225  0.0200 -1.9968  2.0222
 2817SOL     OW 8506   0.988   4.143   2.315  0.0062  0.0493  0.0721
 2817SOL    HW1 8507   0.931   4.124   2.241 -0.1009 -1.0521  0.4156
 2817SOL    HW2 8508   0.965   4.232   2.341  1.1628  1.0828 -2.1933
 2818SOL     OW 8509   1.077   3.263   2.745 -0.2936 -0.2204  0.0126
 2818SOL    HW1 8510   1.043   3.259   2.835  0.1103 -2.4675  0.1116
 2818SOL    HW2 8511   1.168   3.291   2.756 -0.4179  0.1216  0.2249
 2819SOL     OW 8512   2.920   3.646   4.257  0.2082 -0.1244  0.1605
 2819SOL    HW1 8513   2.954   3.712   4.197  1.3928 -0.6201  0.2619
 2819SOL    HW2 8514   2.854   3.599   4.206 -1.6068  1.8989  0.4748
 2820SOL     OW 8515   0.650   3.431   2.123 -0.0435  0.1624 -0.5817
 2820SOL    HW1 8516   0.603   3.494   2.069  1.0000  1.1913 -0.3350
 2820SOL    HW2 8517   0.609   3.439   2.210  1.3898  2.0495 -0.0089
 2821SOL     OW 8518   3.577   1.666   4.361 -0.0826 -0.2149  0.1551
 2821SOL    HW1 8519   3.495   1.692   4.321 -0.5898 -2.3931 -0.3540
 2821SOL    HW2 8520   3.564   1.574   4.385  1.2642  0.1320  2.5581
 2822SOL     OW 8521   2.820   2.383   3.096  0.5520  0.4868 -0.0694
 2822SOL    HW1 8522   2.784   2.342   3.174  1.2080 -1.7354 -0.8524
 2822SOL    HW2 8523   2.795   2.324   3.024  2.8832  0.5686 -1.0492
 2823SOL     OW 8524   0.585   2.658   1.111 -0.3607 -0.0750 -0.1720
 2823SOL    HW1 8525   0.647   2.727   1.132  0.0225 -0.5341  0.2286
 2823SOL    HW2 8526   0.619   2.618   1.032  0.7095 -1.3058  0.8599
 2824SOL     OW 8527   0.389   2.873   4.842 -1.0317  0.1946 -0.2273
 2824SOL    HW1 8528   0.419   2.939   4.780 -2.9406  1.5338  0.1829
 2824SOL    HW2 8529   0.377   2.794   4.790  1.3843  0.0801 -0.7085
 2825SOL     OW 8530   4.819   3.103   1.202 -0.6551  0.4773 -0.1619
 2825SOL    HW1 8531   4.814   3.190   1.242  2.8121  0.1736  1.3412
 2825SOL    HW2 8532   4.877   3.115   1.127 -0.3884 -0.4545 -0.1175
 2826SOL     OW 8533   1.943   3.247   0.537  0.7192  0.5859  0.3524
 2826SOL    HW1 8534   2.015   3.311   0.535  1.0973  0.1530 -0.1733
 2826SOL    HW2 8535   1.934   3.225   0.630  1.0467  0.8895  0.4607
 2827SOL     OW 8536   0.535   4.127   4.043 -0.1093 -0.8536 -0.4493
 2827SOL    HW1 8537   0.505   4.037   4.053 -0.5993 -0.5818  0.7148
 2827SOL    HW2 8538   0.618   4.120   3.997 -0.8288 -1.7947 -1.6517
 2828SOL     OW 8539   4.736   0.235   3.927 -0.0851  0.3431  0.8546
 2828SOL    HW1 8540   4.800   0.295   3.890  0.3658 -1.7413 -2.0306
 2828SOL    HW2 8541   4.787   0.179   3.986  0.4909 -0.3308 -0.2576
 2829SOL     OW 8542   4.579   4.723   3.306 -0.2737 -0.0346  0.1944
 2829SOL    HW1 8543   4.617   4.722   3.394  0.3173 -0.2015 -0.0608
 2829SOL    HW2 8544   4.640   4.777   3.255 -0.3433 -0.3611 -0.2331
 2830SOL     OW 8545   3.410   4.756   0.834 -0.0995 -0.0800 -0.5939
 2830SOL    HW1 8546   3.504   4.774   0.841 -0.0244 -0.2207 -1.1565
 2830SOL    HW2 8547   3.369   4.821   0.890  0.3597 -0.3098  0.0171
 2831SOL     OW 8548   3.481   2.797   1.429  0.1503  0.1463 -0.0364
 2831SOL    HW1 8549   3.515   2.874   1.384  0.8271 -0.9244 -1.4238
 2831SOL    HW2 8550   3.412   2.831   1.486  0.9261  1.8589 -0.0617
 2832SOL     OW 8551   3.821   3.455   2.430 -0.3195 -0.1372 -0.7639
 2832SOL    HW1 8552   3.788   3.407   2.506  2.9639 -1.9518 -0.2815
 2832SOL    HW2 8553   3.837   3.386   2.364  0.0482  0.9633 -1.8588
 2833SOL     OW 8554   4.296   0.438   3.609 -0.1533  0.1918 -0.1740
 2833SOL    HW1 8555   4.294   0.375   3.681  0.0168  1.1553  0.6932
 2833SOL    HW2 8556   4.215   0.421   3.560  1.1975 -2.6392 -1.7138
 2834SOL     OW 8557   1.987   2.003   0.293 -0.0626  0.5334  0.1566
 2834SOL    HW1 8558   1.948   2.027   0.209 -0.4232  0.4486  0.2985
 2834SOL    HW2 8559   1.912   1.986   0.350  0.1595  1.4998  0.7622
 2835SOL     OW 8560   3.306   2.341   2.778 -0.4294 -0.3301  0.0424
 2835SOL    HW1 8561   3.368   2.296   2.721 -1.4932 -1.2384 -0.4311
 2835SOL    HW2 8562   3.223   2.294   2.766 -1.2612  0.9419  0.5340
 2836SOL     OW 8563   4.016   4.817   1.285 -0.5517 -0.7386 -0.2349
 2836SOL    HW1 8564   4.028   4.911   1.302 -0.0167 -0.7591 -0.4739
 2836SOL    HW2 8565   4.016   4.777   1.372 -0.9694 -0.4970 -0.1214
 2837SOL     OW 8566   4.918   3.498   1.550  0.3246 -0.3305  0.6275
 2837SOL    HW1 8567   4.938   3.591   1.548  0.8180 -0.4293  0.8455
 2837SOL    HW2 8568   4.917   3.475   1.643 -2.1235 -0.0656  0.7418
 2838SOL     OW 8569   1.485   0.030   3.764  0.7214 -0.1635 -1.0233
 2838SOL    HW1 8570   1.426   0.105   3.768 -0.0472 -0.8027  1.4637
 2838SOL    HW2 8571   1.545   0.041   3.838  0.8394 -1.7635 -0.8283
 2839SOL     OW 8572   3.385   1.314   3.062 -0.3459 -0.1213  0.2612
 2839SOL    HW1 8573   3.306   1.314   3.116 -0.0612  0.7677  0.7099
 2839SOL    HW2 8574   3.453   1.348   3.120  0.8536 -2.7138  0.5107
 2840SOL     OW 8575   4.139   1.116   1.786  0.1273  0.1915 -0.3014
 2840SOL    HW1 8576   4.089   1.044   1.825  1.3360 -2.1265 -2.7548
 2840SOL    HW2 8577   4.113   1.193   1.837 -3.7602 -1.3357  0.3766
 2841SOL     OW 8578   3.394   3.933   1.685  0.4690 -0.1655 -0.3425
 2841SOL    HW1 8579   3.362   3.893   1.766  0.4123 -0.4301 -0.4952
 2841SOL    HW2 8580   3.490   3.930   1.694  0.4675 -0.5466 -0.4558
 2842SOL     OW 8581   0.189   4.061   1.765  0.1048 -0.3713 -0.3141
 2842SOL    HW1 8582   0.197   3.966   1.774 -1.0506 -0.3130  2.6537
 2842SOL    HW2 8583   0.098   4.075   1.739 -0.1025 -0.0701  0.5394
 2843SOL     OW 8584   1.447   4.492   3.263 -0.2332  0.7680 -0.2792
 2843SOL    HW1 8585   1.512   4.552   3.298  2.1784 -2.0913  0.5875
 2843SOL    HW2 8586   1.492   4.445   3.193 -1.3674 -1.1792  0.1935
 2844SOL     OW 8587   4.216   1.919   0.838 -0.1492 -0.0222  0.0191
 2844SOL    HW1 8588   4.230   1.824   0.841  0.1965 -0.0350 -1.5758
 2844SOL    HW2 8589   4.286   1.954   0.894 -0.0785 -0.6861  0.3627
 2845SOL     OW 8590   0.118   1.090   2.530  0.5574  0.2197  0.3127
 2845SOL    HW1 8591   0.114   1.143   2.609  0.6688  0.7114 -0.0102
 2845SOL    HW2 8592   0.026   1.069   2.511  0.5438 -0.0424  0.6665
 2846SOL     OW 8593   3.109   0.510   1.945  0.0290 -0.4798  0.0820
 2846SOL    HW1 8594   3.109   0.605   1.952 -1.1080 -0.4983  0.3934
 2846SOL    HW2 8595   3.163   0.492   1.868 -1.1102  0.4985 -0.9794
 2847SOL     OW 8596   3.723   4.248   3.822  0.2533 -0.3177 -0.6860
 2847SOL    HW1 8597   3.710   4.156   3.800 -0.6730  0.1517 -2.1734
 2847SOL    HW2 8598   3.657   4.295   3.772  1.1602  1.2332 -0.4878
 2848SOL     OW 8599   3.266   0.069   4.440 -0.7169  0.2494  0.3207
 2848SOL    HW1 8600   3.301   0.068   4.530 -1.9339  0.7790  0.8243
 2848SOL    HW2 8601   3.245   0.160   4.423 -0.2150  0.1912 -0.6274
 2849SOL     OW 8602   0.256   3.377   0.424 -0.0597  0.4693  0.0415
 2849SOL    HW1 8603   0.237   3.430   0.347  1.5228  0.8276 -0.1377
 2849SOL    HW2 8604   0.288   3.439   0.489  0.9004 -0.1109  0.1562
 2850SOL     OW 8605   1.296   0.945   0.582 -0.0503 -0.1545 -0.2285
 2850SOL    HW1 8606   1.306   1.023   0.636 -0.4911  0.3872 -0.9298
 2850SOL    HW2 8607   1.213   0.957   0.536 -0.8436 -1.6842  0.7193
 2851SOL     OW 8608   3.229   4.512   0.702  0.1687  0.0014 -0.4156
 2851SOL    HW1 8609   3.283   4.437   0.676 -0.9977 -0.9679 -0.0813
 2851SOL    HW2 8610   3.293   4.580   0.726  1.2532 -0.4061 -1.9954
 2852SOL     OW 8611   1.917   0.362   1.744  0.0776  0.2862 -0.1259
 2852SOL    HW1 8612   1.860   0.309   1.801 -0.7237 -0.2074 -1.3320
 2852SOL    HW2 8613   1.897   0.452   1.768 -1.7967  0.1534 -1.0069
 2853SOL     OW 8614   4.092   1.462   1.184  0.2104 -0.0635 -0.3060
 2853SOL    HW1 8615   4.099   1.508   1.267 -0.1744 -2.2993  1.0409
 2853SOL    HW2 8616   4.023   1.508   1.136  1.4574  2.1653 -0.0560
 2854SOL     OW 8617   4.781   3.598   0.062 -0.1110 -0.1395  0.1144
 2854SOL    HW1 8618   4.784   3.547   0.143  1.5779  0.8180  0.7008
 2854SOL    HW2 8619   4.818   3.539  -0.005 -1.4975 -0.9257 -0.0003
 2855SOL     OW 8620   1.849   4.164   1.916 -0.0226 -0.3955  0.0518
 2855SOL    HW1 8621   1.869   4.202   2.002 -0.5687 -1.5466  0.7117
 2855SOL    HW2 8622   1.934   4.158   1.872  0.0811  1.6136 -0.1194
 2856SOL     OW 8623   4.577   0.136   1.533 -0.4463 -0.0779 -0.2867
 2856SOL    HW1 8624   4.591   0.165   1.443  1.8053  0.1393  0.0879
 2856SOL    HW2 8625   4.516   0.062   1.525  0.5939 -0.8096 -2.1259
 2857SOL     OW 8626   2.382   0.122   4.325 -0.1731  0.2600 -0.6525
 2857SOL    HW1 8627   2.344   0.205   4.353  0.9098  0.6168 -0.2050
 2857SOL    HW2 8628   2.413   0.138   4.236 -0.4425  0.1708 -0.7639
 2858SOL     OW 8629   0.482   3.556   1.520  0.3412  0.1783 -0.1720
 2858SOL    HW1 8630   0.511   3.615   1.450  0.7085 -0.0926 -0.2491
 2858SOL    HW2 8631   0.562   3.514   1.551  0.0988 -0.1640 -0.0055
 2859SOL     OW 8632   2.688   1.366   3.132  0.2924  0.1035 -0.1478
 2859SOL    HW1 8633   2.764   1.409   3.093  1.1364 -1.6976 -0.5967
 2859SOL    HW2 8634   2.613   1.407   3.089  1.0761  0.7133 -0.9716
 2860SOL     OW 8635   3.885   0.563   1.713 -0.5039 -0.1423 -0.4462
 2860SOL    HW1 8636   3.909   0.627   1.647  0.6905  0.3109  0.3845
 2860SOL    HW2 8637   3.882   0.613   1.795  0.7970 -1.1728  0.2706
 2861SOL     OW 8638   3.681   3.199   4.574  0.2730  0.5570  0.2040
 2861SOL    HW1 8639   3.685   3.267   4.641 -0.4556 -0.7631  1.6536
 2861SOL    HW2 8640   3.588   3.194   4.551  0.3126  0.0318  0.1485
 2862SOL     OW 8641   2.791   4.843   3.415  0.9776 -0.5950  0.0409
 2862SOL    HW1 8642   2.708   4.846   3.368 -0.3307 -2.6900  1.9970
 2862SOL    HW2 8643   2.857   4.829   3.347 -0.4394 -0.4708 -1.4133
 2863SOL     OW 8644   2.540   0.871   4.591  0.1465  0.3747 -0.3225
 2863SOL    HW1 8645   2.497   0.913   4.517 -0.0428  0.1715 -0.3305
 2863SOL    HW2 8646   2.473   0.866   4.659 -0.4557 -1.7244 -1.0106
 2864SOL     OW 8647   0.553   0.520   1.977  0.2408  0.2061  0.2522
 2864SOL    HW1 8648   0.645   0.513   2.002  0.3205 -0.1000 -0.1122
 2864SOL    HW2 8649   0.547   0.472   1.894 -0.7393 -2.0270  1.5211
 2865SOL     OW 8650   1.170   3.814   2.235 -0.5174 -0.1958 -0.0686
 2865SOL    HW1 8651   1.131   3.832   2.150 -0.8335 -1.5487 -0.2264
 2865SOL    HW2 8652   1.224   3.891   2.253 -0.9405  0.3852 -1.1972
 2866SOL     OW 8653   4.486   3.471   0.665 -0.4565 -0.0190 -0.2816
 2866SOL    HW1 8654   4.435   3.404   0.620 -1.3574 -0.2377  1.0168
 2866SOL    HW2 8655   4.572   3.469   0.622 -0.9465 -0.9435 -1.2547
 2867SOL     OW 8656   4.760   2.164   2.832  0.0782  0.2377 -0.2144
 2867SOL    HW1 8657   4.790   2.249   2.864 -3.3265  1.9465 -1.0890
 2867SOL    HW2 8658   4.665   2.173   2.825 -0.3637 -3.4134 -1.1466
 2868SOL     OW 8659   3.123   4.767   3.980 -0.1021 -0.4089  0.5036
 2868SOL    HW1 8660   3.082   4.838   4.029  0.3389  0.4618 -0.3560
 2868SOL    HW2 8661   3.216   4.776   3.998  0.0482 -0.1762 -0.3669
 2869SOL     OW 8662   1.511   1.748   1.133 -0.0150 -0.2186  1.1041
 2869SOL    HW1 8663   1.559   1.719   1.056  1.1583 -0.6878  1.9798
 2869SOL    HW2 8664   1.444   1.807   1.099  0.7728 -0.0505 -0.2146
 2870SOL     OW 8665   1.977   1.474   3.591  0.7237 -0.2852 -0.4433
 2870SOL    HW1 8666   1.970   1.392   3.641  0.8584 -0.2773 -0.4107
 2870SOL    HW2 8667   1.935   1.454   3.507  0.6759 -0.3605 -0.4020
 2871SOL     OW 8668   0.361   4.225   2.294 -0.5445  0.4537  0.6360
 2871SOL    HW1 8669   0.445   4.213   2.339 -0.7026  0.8079  1.0261
 2871SOL    HW2 8670   0.377   4.296   2.232 -0.0496 -0.6692 -0.5793
 2872SOL     OW 8671   4.124   2.644   4.157 -0.0483  0.5843 -0.9695
 2872SOL    HW1 8672   4.064   2.573   4.181 -0.1441 -0.1327 -3.1346
 2872SOL    HW2 8673   4.156   2.678   4.241  0.2048 -2.1755  0.1425
 2873SOL     OW 8674   3.968   2.434   3.350  0.0521 -0.5485 -0.0802
 2873SOL    HW1 8675   3.916   2.402   3.424  0.8482 -1.6148  0.0355
 2873SOL    HW2 8676   3.903   2.463   3.286 -0.6698  1.2224  1.3384
 2874SOL     OW 8677   2.656   1.617   2.448  0.0742 -0.0313 -0.2746
 2874SOL    HW1 8678   2.569   1.644   2.420  1.0647  1.4591 -2.2036
 2874SOL    HW2 8679   2.712   1.633   2.372  1.9462 -1.4744  0.7092
 2875SOL     OW 8680   3.835   2.267   1.169  0.5627 -0.4782  0.2428
 2875SOL    HW1 8681   3.792   2.352   1.158 -0.8050 -1.0354  1.0536
 2875SOL    HW2 8682   3.844   2.258   1.264 -0.5912 -1.8479  0.2406
 2876SOL     OW 8683  -0.003   1.897   4.897  0.4450 -0.1591 -0.2272
 2876SOL    HW1 8684  -0.009   1.945   4.979 -0.2292  0.7801 -0.8028
 2876SOL    HW2 8685   0.078   1.847   4.904 -0.0440 -0.7748  1.3459
 2877SOL     OW 8686   4.224   0.292   3.953  0.0393  0.7264 -0.4232
 2877SOL    HW1 8687   4.313   0.324   3.963  0.2078 -0.1612  1.1741
 2877SOL    HW2 8688   4.172   0.371   3.937  0.7482  1.5767  1.2488
 2878SOL     OW 8689   0.499   0.062   2.659  0.2269 -0.1399  0.0539
 2878SOL    HW1 8690   0.448   0.006   2.600  0.4979  0.1179 -0.4319
 2878SOL    HW2 8691   0.452   0.145   2.661 -0.0456 -0.3085  0.5856
 2879SOL     OW 8692   3.300   3.330   2.513  0.2620  0.4747 -0.5503
 2879SOL    HW1 8693   3.321   3.285   2.596  1.3092  1.4822 -0.2505
 2879SOL    HW2 8694   3.286   3.421   2.538  1.7866  1.0361 -1.6288
 2880SOL     OW 8695   1.651   1.837   1.371 -0.1123 -0.5898  0.6853
 2880SOL    HW1 8696   1.735   1.805   1.338  0.5913  0.5356  1.3241
 2880SOL    HW2 8697   1.590   1.819   1.300  1.2013  1.0664 -0.9754
 2881SOL     OW 8698   4.376   1.814   0.226 -0.4442 -0.1746 -0.0142
 2881SOL    HW1 8699   4.314   1.880   0.257 -1.2257 -0.2455 -1.3522
 2881SOL    HW2 8700   4.462   1.852   0.245 -0.8813  0.7897  0.1213
 2882SOL     OW 8701   3.332   4.943   1.035 -0.1769 -0.4768  0.4729
 2882SOL    HW1 8702   3.310   4.891   1.112 -2.3568 -0.6209 -0.1790
 2882SOL    HW2 8703   3.280   5.023   1.043  0.4383  0.0190 -0.2803
 2883SOL     OW 8704   4.173   1.541   4.750  0.5619  0.1089  0.3286
 2883SOL    HW1 8705   4.136   1.572   4.667  0.4346 -0.1873  0.2759
 2883SOL    HW2 8706   4.150   1.609   4.813  0.9154  0.4857  0.0644
 2884SOL     OW 8707   0.907   3.140   4.919 -0.4744 -0.0796  0.5437
 2884SOL    HW1 8708   0.881   3.199   4.990 -2.0191 -0.0525  0.0065
 2884SOL    HW2 8709   0.983   3.093   4.953  0.2852  1.5925  1.3064
 2885SOL     OW 8710   1.679   0.397   3.311 -0.0509 -0.7200  0.0935
 2885SOL    HW1 8711   1.663   0.487   3.339  0.5017 -0.6559  0.2141
 2885SOL    HW2 8712   1.593   0.355   3.316 -0.3254 -0.1884 -0.0193
 2886SOL     OW 8713   3.873   0.215   4.874 -0.3661  0.2516 -0.2451
 2886SOL    HW1 8714   3.932   0.250   4.940  1.0869  0.1737 -1.4538
 2886SOL    HW2 8715   3.927   0.156   4.822 -1.5880 -0.0690 -1.2021
 2887SOL     OW 8716   4.763   2.512   3.240  0.2019  0.0960  0.2014
 2887SOL    HW1 8717   4.701   2.584   3.228 -1.2890 -0.2243  4.3605
 2887SOL    HW2 8718   4.830   2.548   3.300  1.4827 -0.9438 -0.5541
 2888SOL     OW 8719   4.957   1.460   2.597 -0.1131 -0.1571  0.3817
 2888SOL    HW1 8720   4.888   1.511   2.639 -1.0905 -0.8069 -0.3659
 2888SOL    HW2 8721   4.994   1.407   2.667 -1.1117 -0.5730  0.6230
 2889SOL     OW 8722   1.346   2.618   4.344  0.3510 -0.0769 -0.2773
 2889SOL    HW1 8723   1.308   2.595   4.259 -0.1708 -0.7614  0.1301
 2889SOL    HW2 8724   1.400   2.695   4.326  0.7024 -0.5432 -1.3384
 2890SOL     OW 8725   4.787   2.868   4.788  0.1049 -0.2273  0.0570
 2890SOL    HW1 8726   4.762   2.935   4.851  2.2668 -0.5278  1.3164
 2890SOL    HW2 8727   4.827   2.917   4.716  0.0810 -0.0695  0.1509
 2891SOL     OW 8728   3.146   1.084   1.638 -0.3054 -0.1384 -0.1287
 2891SOL    HW1 8729   3.100   1.126   1.565 -1.6448 -2.6801 -0.8651
 2891SOL    HW2 8730   3.119   1.134   1.715 -0.2838  1.4891 -1.1260
 2892SOL     OW 8731   4.645   4.296   4.718 -0.3136  0.2300 -0.1482
 2892SOL    HW1 8732   4.729   4.274   4.757 -0.1766 -0.3711 -0.7619
 2892SOL    HW2 8733   4.633   4.232   4.648 -1.2184  0.3889 -0.1588
 2893SOL     OW 8734   0.648   0.521   3.605  0.1549 -0.3734 -0.1610
 2893SOL    HW1 8735   0.565   0.482   3.634 -0.0826 -1.0009 -1.6135
 2893SOL    HW2 8736   0.702   0.521   3.684 -0.5538 -1.7737  0.3674
 2894SOL     OW 8737   4.818   0.684   4.761 -0.1433 -0.5763  0.1109
 2894SOL    HW1 8738   4.807   0.762   4.815  1.0605  0.2183 -0.7518
 2894SOL    HW2 8739   4.756   0.695   4.689  1.2873  0.5256 -1.0093
 2895SOL     OW 8740   0.785   3.019   4.399 -0.6325 -0.0092 -0.1573
 2895SOL    HW1 8741   0.807   3.019   4.492 -2.1581 -1.5241  0.2665
 2895SOL    HW2 8742   0.839   3.088   4.361 -0.4118  1.0599  1.9523
 2896SOL     OW 8743   2.985   1.464   3.500  0.2968  0.0902  0.2144
 2896SOL    HW1 8744   3.063   1.504   3.460  0.0551 -0.7001 -1.0988
 2896SOL    HW2 8745   2.928   1.539   3.521 -0.3982  0.5072 -2.7166
 2897SOL     OW 8746   3.367   3.100   0.291 -0.0153 -0.3106 -0.2876
 2897SOL    HW1 8747   3.447   3.147   0.268 -0.4765  1.1415  0.9350
 2897SOL    HW2 8748   3.390   3.052   0.371 -0.4011  0.2459  0.1634
 2898SOL     OW 8749   1.769   1.188   1.149  0.1493  0.3467  0.4337
 2898SOL    HW1 8750   1.802   1.275   1.130 -1.0542  0.9307  0.9241
 2898SOL    HW2 8751   1.840   1.145   1.197  0.9598  0.8488 -0.2932
 2899SOL     OW 8752  -0.004   1.184   0.629  0.1916  0.1040  0.0912
 2899SOL    HW1 8753  -0.032   1.239   0.702  0.4712 -0.8782  0.9662
 2899SOL    HW2 8754   0.052   1.117   0.669  0.3383 -0.4721 -1.0231
 2900SOL     OW 8755   1.700   3.067   0.756 -0.2789  0.1912 -1.2529
 2900SOL    HW1 8756   1.620   3.019   0.776 -0.4077  0.1105 -1.9414
 2900SOL    HW2 8757   1.675   3.159   0.762  0.1572  0.2049  0.8319
 2901SOL     OW 8758   3.699   3.772   0.533  0.0112 -0.4606 -0.2200
 2901SOL    HW1 8759   3.625   3.805   0.482  0.9759 -1.7926 -2.6545
 2901SOL    HW2 8760   3.663   3.698   0.582 -0.5447 -0.3373 -0.4356
 2902SOL     OW 8761   1.429   2.768   0.067  0.4488  0.2431  0.3080
 2902SOL    HW1 8762   1.343   2.741   0.099 -0.1442  0.8847 -0.6960
 2902SOL    HW2 8763   1.470   2.811   0.143  0.6468 -1.6739  1.3380
 2903SOL     OW 8764   2.770   4.725   4.221 -0.1375  0.5680 -0.3715
 2903SOL    HW1 8765   2.689   4.756   4.181  0.1837  1.8895 -0.0514
 2903SOL    HW2 8766   2.741   4.676   4.299 -0.6510  0.3851 -0.6741
 2904SOL     OW 8767   4.153   3.253   4.000 -0.2265 -0.0869  0.1382
 2904SOL    HW1 8768   4.214   3.192   3.960 -0.1659  1.5277 -2.4447
 2904SOL    HW2 8769   4.067   3.215   3.984 -0.3396  1.3013 -3.2636
 2905SOL     OW 8770   4.061   3.637   2.821  0.6957 -0.0654  0.0598
 2905SOL    HW1 8771   4.049   3.562   2.764  3.0242 -0.4965  0.0534
 2905SOL    HW2 8772   4.151   3.666   2.805  0.9990  0.6300  2.5015
 2906SOL     OW 8773   3.921   0.080   2.826 -0.0089 -0.2604  1.0410
 2906SOL    HW1 8774   3.956   0.105   2.912 -1.7739  2.1484  1.1603
 2906SOL    HW2 8775   3.840   0.130   2.818  0.3018 -0.0716 -2.2151
 2907SOL     OW 8776   3.901   0.846   1.103  0.2954 -0.6193 -0.8388
 2907SOL    HW1 8777   3.854   0.898   1.038 -0.2171 -0.3883 -0.2912
 2907SOL    HW2 8778   3.837   0.830   1.172  0.8814 -0.7207 -0.3123
 2908SOL     OW 8779   1.971   3.799   0.906 -0.5961 -0.2625  0.2204
 2908SOL    HW1 8780   2.021   3.792   0.825  0.3897 -0.4286  0.8197
 2908SOL    HW2 8781   1.952   3.708   0.930 -0.7559 -0.2203  0.2582
 2909SOL     OW 8782   4.335   0.571   1.943 -0.0848 -0.0631 -0.2512
 2909SOL    HW1 8783   4.358   0.637   1.878  0.4335 -1.4447 -1.5471
 2909SOL    HW2 8784   4.264   0.521   1.902 -0.8494  0.0246  0.9311
 2910SOL     OW 8785   2.811   1.765   0.623 -0.1054 -0.1210  0.2729
 2910SOL    HW1 8786   2.898   1.781   0.657  0.6314 -1.2997 -0.9760
 2910SOL    HW2 8787   2.800   1.831   0.554  0.0076 -0.3234  0.0631
 2911SOL     OW 8788   3.080   0.239   0.611 -0.2514 -0.2666  0.1358
 2911SOL    HW1 8789   3.036   0.244   0.696 -0.3469  0.0141  0.0709
 2911SOL    HW2 8790   3.160   0.289   0.622 -0.8122  0.7445 -0.2717
 2912SOL     OW 8791   2.035   4.116   2.242 -0.2925  0.2566 -0.1837
 2912SOL    HW1 8792   2.100   4.138   2.309 -2.9381  0.5519  2.5235
 2912SOL    HW2 8793   2.000   4.201   2.215 -0.5820  0.0291 -0.5331
 2913SOL     OW 8794   4.689   1.960   3.580  0.3886 -0.8881  0.3066
 2913SOL    HW1 8795   4.753   1.952   3.510 -0.0889  0.7525 -0.3500
 2913SOL    HW2 8796   4.645   1.875   3.581 -0.3954 -0.5930 -2.1879
 2914SOL     OW 8797   3.846   3.169   1.554 -0.1491 -0.0518  0.1252
 2914SOL    HW1 8798   3.791   3.235   1.595 -0.5447  0.6969 -1.5514
 2914SOL    HW2 8799   3.935   3.203   1.562 -0.5210  1.9043 -2.7082
 2915SOL     OW 8800   0.099   4.101   2.745 -0.0075 -0.0848  0.6576
 2915SOL    HW1 8801   0.006   4.122   2.747 -0.0082 -0.1028  2.2976
 2915SOL    HW2 8802   0.102   4.005   2.745 -0.0725 -0.2230  4.5221
 2916SOL     OW 8803   1.714   3.381   2.446  0.2095  0.4246 -0.7551
 2916SOL    HW1 8804   1.655   3.383   2.371 -1.5640  0.7617  0.5685
 2916SOL    HW2 8805   1.692   3.460   2.496  0.8504 -0.1363  0.4687
 2917SOL     OW 8806   3.847   1.281   0.298 -0.4385  0.2642  0.1418
 2917SOL    HW1 8807   3.827   1.257   0.207  0.8947 -2.2056  0.4145
 2917SOL    HW2 8808   3.898   1.361   0.291  1.8568 -1.2208 -1.5626
 2918SOL     OW 8809   0.480   4.094   0.054  0.3221  0.6172  0.6499
 2918SOL    HW1 8810   0.404   4.117  -0.001  1.4269 -0.8185 -1.6577
 2918SOL    HW2 8811   0.508   4.177   0.092 -0.0136  1.8957 -1.7085
 2919SOL     OW 8812   4.376   2.526   4.047 -0.0629 -0.0222 -0.2450
 2919SOL    HW1 8813   4.296   2.548   4.094  0.8917 -0.4291  1.6960
 2919SOL    HW2 8814   4.368   2.433   4.027  0.9752 -0.7852  2.3881
 2920SOL     OW 8815   4.891   1.005   1.255  0.3345  0.0089  0.2486
 2920SOL    HW1 8816   4.969   0.958   1.285 -0.3358 -0.5647  1.1623
 2920SOL    HW2 8817   4.830   0.999   1.329  0.4601  2.9581  0.6968
 2921SOL     OW 8818   1.344   1.501   0.228 -0.0320  0.2366 -0.5686
 2921SOL    HW1 8819   1.264   1.553   0.223  0.5468  1.1181 -0.9461
 2921SOL    HW2 8820   1.316   1.412   0.208 -0.9721  0.4771 -0.3723
 2922SOL     OW 8821   2.917   0.687   0.075 -0.3960  0.2631  0.1611
 2922SOL    HW1 8822   3.012   0.693   0.083 -0.2747 -0.7357 -0.3930
 2922SOL    HW2 8823   2.885   0.693   0.165  0.1372  1.2849  0.2972
 2923SOL     OW 8824   1.602   0.579   1.656 -0.4072  0.5891  0.6901
 2923SOL    HW1 8825   1.617   0.670   1.684 -1.5272  0.9580  0.1725
 2923SOL    HW2 8826   1.508   0.576   1.634  0.0672 -0.0523 -1.5376
 2924SOL     OW 8827   4.308   0.247   1.857 -0.4891  0.4743 -0.0393
 2924SOL    HW1 8828   4.307   0.256   1.952 -0.7089  0.2149 -0.0173
 2924SOL    HW2 8829   4.242   0.309   1.826 -0.2307  0.7500 -0.0392
 2925SOL     OW 8830   3.148   2.327   2.395  0.5767 -0.3159 -0.5386
 2925SOL    HW1 8831   3.162   2.412   2.437  0.8225 -0.7032  0.1911
 2925SOL    HW2 8832   3.142   2.265   2.468 -0.3169 -0.8263 -1.0302
 2926SOL     OW 8833   4.903   2.083   0.162 -0.2199 -0.0243 -0.0333
 2926SOL    HW1 8834   4.852   2.113   0.238 -1.0200  2.5243 -1.4300
 2926SOL    HW2 8835   4.969   2.151   0.149  2.1933 -2.1528  0.3733
 2927SOL     OW 8836   0.751   0.677   4.126 -0.0979 -0.4531  0.2737
 2927SOL    HW1 8837   0.812   0.631   4.183 -1.0684 -1.2154  0.7355
 2927SOL    HW2 8838   0.681   0.613   4.110 -0.1064 -0.0809 -1.3627
 2928SOL     OW 8839   2.449   3.206   4.728  0.2973  0.3760  1.0251
 2928SOL    HW1 8840   2.509   3.193   4.802 -0.8262  0.0882  1.9092
 2928SOL    HW2 8841   2.372   3.246   4.767 -0.1159  0.6914 -0.0950
 2929SOL     OW 8842   1.574   2.971   3.638 -0.0374  0.1842 -0.0649
 2929SOL    HW1 8843   1.654   2.969   3.585 -0.7587 -0.0225 -1.1968
 2929SOL    HW2 8844   1.590   2.907   3.707  0.3949 -0.6231 -0.8819
 2930SOL     OW 8845   4.879   4.389   1.681 -0.3317 -0.1680  0.2656
 2930SOL    HW1 8846   4.939   4.319   1.655 -0.7207 -0.3859 -0.0446
 2930SOL    HW2 8847   4.804   4.344   1.720 -1.9410 -0.1469 -2.5130
 2931SOL     OW 8848   1.487   0.574   0.875  0.2310  0.0676  0.3250
 2931SOL    HW1 8849   1.551   0.633   0.835  1.5249  0.2427  2.4902
 2931SOL    HW2 8850   1.540   0.505   0.915 -1.2064 -2.2275 -1.4691
 2932SOL     OW 8851   0.043   4.671   2.437  0.0953 -0.0433  0.5153
 2932SOL    HW1 8852  -0.049   4.644   2.430 -0.5354  1.8505  0.9472
 2932SOL    HW2 8853   0.084   4.632   2.360 -1.0522 -0.9363  0.3111
 2933SOL     OW 8854   2.590   4.457   0.702  0.1897  0.6740 -0.9858
 2933SOL    HW1 8855   2.569   4.489   0.790  0.2403 -0.2823 -0.6132
 2933SOL    HW2 8856   2.626   4.533   0.657 -1.6769  1.6838 -0.8341
 2934SOL     OW 8857   1.460   1.261   2.737 -0.0448  0.4573 -0.4680
 2934SOL    HW1 8858   1.522   1.192   2.712 -2.1005 -3.0374  2.9088
 2934SOL    HW2 8859   1.515   1.331   2.772  2.1187 -0.1222 -2.4497
 2935SOL     OW 8860   4.803   4.800   4.734  0.0912 -0.4693  0.1699
 2935SOL    HW1 8861   4.791   4.842   4.649 -1.2389  0.3047  0.7112
 2935SOL    HW2 8862   4.898   4.793   4.744  0.3852  2.2955 -0.0243
 2936SOL     OW 8863   4.083   1.709   1.882 -0.0638  0.4647  0.6138
 2936SOL    HW1 8864   4.074   1.637   1.821 -2.6260  1.4278 -0.2548
 2936SOL    HW2 8865   4.168   1.695   1.923 -0.1363 -2.5583 -0.0873
 2937SOL     OW 8866   1.674   1.717   3.481  0.0904 -0.4133  0.2825
 2937SOL    HW1 8867   1.699   1.786   3.420 -2.2782 -0.1728 -0.5536
 2937SOL    HW2 8868   1.580   1.732   3.496  0.0326 -2.0502  1.9510
 2938SOL     OW 8869   4.112   2.192   2.157  0.2335 -0.2402  0.1551
 2938SOL    HW1 8870   4.132   2.159   2.069  0.2834  0.6514 -0.1823
 2938SOL    HW2 8871   4.129   2.286   2.151  1.3509 -0.3328  1.4359
 2939SOL     OW 8872   3.135   3.958   2.274 -0.3064  0.1759 -0.1284
 2939SOL    HW1 8873   3.104   3.999   2.355 -1.1755 -0.8074  0.0566
 2939SOL    HW2 8874   3.120   3.864   2.288  2.2485 -0.3415 -0.2434
 2940SOL     OW 8875   3.826   3.752   2.763 -0.0859  0.0694 -0.2075
 2940SOL    HW1 8876   3.900   3.714   2.810  0.5945  0.3151 -1.0687
 2940SOL    HW2 8877   3.857   3.837   2.734 -0.8270  0.3242 -0.2785
 2941SOL     OW 8878   1.627   2.760   4.429  0.0637  0.1031 -0.2205
 2941SOL    HW1 8879   1.642   2.674   4.390  0.9842  0.0619  0.2117
 2941SOL    HW2 8880   1.570   2.805   4.366 -1.2591 -1.1592  0.0223
 2942SOL     OW 8881   3.796   0.628   0.364 -0.3707  0.6388  0.0084
 2942SOL    HW1 8882   3.861   0.634   0.434  1.2717 -2.3331 -1.0684
 2942SOL    HW2 8883   3.779   0.719   0.339  3.1964  1.6097  0.5532
 2943SOL     OW 8884   3.012   3.840   0.159 -0.3871 -0.2214  0.0439
 2943SOL    HW1 8885   2.945   3.795   0.210  1.1882  0.7764  3.2258
 2943SOL    HW2 8886   3.013   3.930   0.193  1.7479  0.1127 -0.7032
 2944SOL     OW 8887   2.822   1.239   0.583  0.2196  0.0108  0.3312
 2944SOL    HW1 8888   2.903   1.235   0.634  0.5919  2.7417  0.1075
 2944SOL    HW2 8889   2.830   1.319   0.531 -1.6432 -0.8630 -1.4606
 2945SOL     OW 8890   1.345   4.515   3.822  0.5630 -0.3033 -0.6622
 2945SOL    HW1 8891   1.383   4.591   3.778  1.8398  0.0263  0.8957
 2945SOL    HW2 8892   1.270   4.491   3.769  0.2868  1.8859 -1.3536
 2946SOL     OW 8893   0.538   0.680   3.829 -0.3300 -0.7348 -0.2629
 2946SOL    HW1 8894   0.474   0.745   3.857  0.2851 -1.1776  2.4738
 2946SOL    HW2 8895   0.623   0.724   3.838  0.1003 -1.8450  1.6591
 2947SOL     OW 8896   3.711   2.482   0.751  0.3578 -0.3136 -0.2082
 2947SOL    HW1 8897   3.680   2.460   0.663  1.3677 -1.1936 -0.3600
 2947SOL    HW2 8898   3.635   2.467   0.807  0.3792 -2.2197 -0.6053
 2948SOL     OW 8899   4.777   0.927   4.943  0.0017 -0.3202  0.5775
 2948SOL    HW1 8900   4.764   0.912   5.036 -1.2766  1.2665  0.6915
 2948SOL    HW2 8901   4.739   1.013   4.926  0.7302 -0.3113 -1.3031
 2949SOL     OW 8902   2.282   3.923   1.124  0.2368 -0.1547  0.0112
 2949SOL    HW1 8903   2.217   3.893   1.188  0.2941 -0.3566 -0.0237
 2949SOL    HW2 8904   2.280   3.857   1.055  0.1525  0.0805 -0.2131
 2950SOL     OW 8905   4.202   3.614   0.845 -0.2018  0.3015  0.6835
 2950SOL    HW1 8906   4.145   3.656   0.909 -0.6588 -0.8068  1.0291
 2950SOL    HW2 8907   4.278   3.672   0.838 -0.5259  0.8490  1.6074
 2951SOL     OW 8908   0.371   4.024   3.745 -0.5261  0.1558  0.0169
 2951SOL    HW1 8909   0.368   3.929   3.749 -1.1332  0.1262 -0.8961
 2951SOL    HW2 8910   0.306   4.053   3.808 -2.7692 -0.1153 -2.0304
 2952SOL     OW 8911   0.933   2.521   4.758 -0.4667 -0.1836 -0.0072
 2952SOL    HW1 8912   1.001   2.455   4.742 -1.1282 -0.9672  0.3330
 2952SOL    HW2 8913   0.859   2.471   4.792 -1.3720  0.5883 -0.7746
 2953SOL     OW 8914   2.519   2.373   3.837 -0.1555  0.5548  1.0607
 2953SOL    HW1 8915   2.449   2.325   3.795  0.4873  0.7146 -0.2436
 2953SOL    HW2 8916   2.598   2.320   3.822  0.3997  1.5325  0.4205
 2954SOL     OW 8917   2.671   2.392   1.235  0.0664 -0.4421  0.6126
 2954SOL    HW1 8918   2.716   2.314   1.206 -1.0827 -0.4494 -1.3403
 2954SOL    HW2 8919   2.660   2.445   1.156 -0.9153  0.7819  1.5118
 2955SOL     OW 8920   0.777   0.598   0.374  0.1656  0.1465 -0.0025
 2955SOL    HW1 8921   0.729   0.660   0.321  0.7042  1.1587  0.6516
 2955SOL    HW2 8922   0.833   0.551   0.312  0.7777  1.2968 -0.3543
 2956SOL     OW 8923   1.086   1.611   2.923 -0.1308 -0.3171 -0.6476
 2956SOL    HW1 8924   1.078   1.572   2.836 -0.1866 -0.5711 -0.5315
 2956SOL    HW2 8925   1.074   1.537   2.983  3.2850 -0.8587 -0.4366
 2957SOL     OW 8926   0.218   0.225   1.877 -0.1533  0.0876 -0.3016
 2957SOL    HW1 8927   0.238   0.132   1.866 -0.3277 -0.1400  1.1786
 2957SOL    HW2 8928   0.294   0.270   1.841 -0.0592 -0.6191 -1.0149
 2958SOL     OW 8929   4.576   4.306   3.018  0.1002  0.2219 -0.3230
 2958SOL    HW1 8930   4.607   4.308   3.109  0.7070  0.1306 -0.5223
 2958SOL    HW2 8931   4.605   4.390   2.982 -0.9251  0.6453 -0.1850
 2959SOL     OW 8932   4.484   1.481   0.648  0.1112 -0.9509 -0.5166
 2959SOL    HW1 8933   4.578   1.498   0.649  0.2275 -1.5322  0.3481
 2959SOL    HW2 8934   4.452   1.520   0.567  1.0095 -0.2766 -0.5550
 2960SOL     OW 8935   1.340   4.048   4.150 -0.3159  0.2748  0.0878
 2960SOL    HW1 8936   1.308   4.138   4.150  0.0882  0.4214  0.5710
 2960SOL    HW2 8937   1.328   4.017   4.240  1.2187  0.4620  0.3844
 2961SOL     OW 8938   4.369   2.937   1.057 -0.7129  0.4108 -0.1533
 2961SOL    HW1 8939   4.320   3.019   1.048 -1.6008 -0.0362  0.4892
 2961SOL    HW2 8940   4.429   2.937   0.982 -1.9449  0.8072 -1.1858
 2962SOL     OW 8941   2.881   2.916   1.207  0.5138  0.0880  0.4807
 2962SOL    HW1 8942   2.956   2.861   1.185  0.3903 -0.6608  1.8182
 2962SOL    HW2 8943   2.885   2.926   1.302 -0.1551  1.4036  0.3928
 2963SOL     OW 8944   4.256   3.951   2.323 -0.0322  0.4113  0.4871
 2963SOL    HW1 8945   4.225   3.932   2.412 -1.4176  2.4914  0.5265
 2963SOL    HW2 8946   4.218   3.881   2.269 -0.5290  0.0399  1.3004
 2964SOL     OW 8947   3.557   3.011   0.756  0.3883 -0.1081 -0.5450
 2964SOL    HW1 8948   3.538   2.921   0.783  1.9611 -0.0831  0.8200
 2964SOL    HW2 8949   3.642   3.005   0.712  1.7248  0.9839  1.7217
 2965SOL     OW 8950   1.300   3.620   2.027  0.2047 -0.1366 -0.3271
 2965SOL    HW1 8951   1.322   3.532   1.997  0.4739  0.1311 -0.9188
 2965SOL    HW2 8952   1.373   3.644   2.085  0.3199 -0.1528 -0.4647
 2966SOL     OW 8953   1.392   1.406   4.443 -0.1720 -0.0858  1.3633
 2966SOL    HW1 8954   1.313   1.355   4.457  0.8674 -1.6915  1.7015
 2966SOL    HW2 8955   1.441   1.397   4.525  0.0752  1.4363  1.4082
 2967SOL     OW 8956   3.231   2.597   4.131 -0.0022 -0.3400  0.3342
 2967SOL    HW1 8957   3.180   2.518   4.114 -0.7247  0.1261  0.2999
 2967SOL    HW2 8958   3.170   2.669   4.115  0.7987  0.2472 -0.1550
 2968SOL     OW 8959   1.197   2.715   0.205 -0.6499  0.3323 -0.4300
 2968SOL    HW1 8960   1.101   2.718   0.210 -0.6499 -0.7856  1.1464
 2968SOL    HW2 8961   1.227   2.780   0.268 -0.4390 -0.8921  0.8032
 2969SOL     OW 8962   0.882   4.937   0.694 -0.1042  0.0620  0.3272
 2969SOL    HW1 8963   0.901   5.029   0.678 -1.0772 -0.1729 -3.0152
 2969SOL    HW2 8964   0.792   4.936   0.726 -0.3827  0.2907 -0.4132
 2970SOL     OW 8965   0.960   0.261   4.930  0.4071 -0.9352 -0.1921
 2970SOL    HW1 8966   1.016   0.281   4.856  1.9185 -1.1220  0.8626
 2970SOL    HW2 8967   0.979   0.169   4.950 -1.8827 -1.6852 -1.1345
 2971SOL     OW 8968   0.584   0.157   4.642  0.4597 -0.2608  0.6608
 2971SOL    HW1 8969   0.650   0.126   4.580 -0.1114 -4.5298  1.8423
 2971SOL    HW2 8970   0.630   0.161   4.726  0.2409  1.2638  0.7241
 2972SOL     OW 8971   2.472   0.366   3.967 -0.0264 -0.3022 -0.6738
 2972SOL    HW1 8972   2.508   0.422   3.899 -0.8271  0.8812 -0.1497
 2972SOL    HW2 8973   2.380   0.392   3.974  0.5319  1.3040  2.4526
 2973SOL     OW 8974   3.604   0.474   2.302 -0.2896  0.0649 -0.1876
 2973SOL    HW1 8975   3.636   0.485   2.391  0.8988 -0.8897 -0.4631
 2973SOL    HW2 8976   3.611   0.561   2.263 -0.1584  0.3410  0.4393
 2974SOL     OW 8977   3.121   4.101   0.819 -0.2014  0.0755 -0.4089
 2974SOL    HW1 8978   3.179   4.072   0.890 -0.9770  1.3572  0.7809
 2974SOL    HW2 8979   3.040   4.052   0.833 -0.4165  0.4633 -0.3047
 2975SOL     OW 8980   1.457   3.371   3.556 -0.5673  0.0437  0.2566
 2975SOL    HW1 8981   1.457   3.408   3.644 -1.1613 -0.4920  0.4853
 2975SOL    HW2 8982   1.403   3.292   3.563 -0.4619 -0.1058 -0.5429
 2976SOL     OW 8983   3.089   2.059   4.164 -0.1341  0.0519  0.0942
 2976SOL    HW1 8984   3.023   2.038   4.230 -1.0500  0.0843 -0.7734
 2976SOL    HW2 8985   3.087   1.984   4.104 -0.1419  0.5306 -0.5159
 2977SOL     OW 8986   2.806   4.751   0.844  0.1916 -0.1228  0.5395
 2977SOL    HW1 8987   2.866   4.806   0.895  0.8568 -0.4365  0.1106
 2977SOL    HW2 8988   2.858   4.723   0.768 -0.9198  0.7164 -0.5663
 2978SOL     OW 8989   1.773   0.925   3.473  0.4384  0.0906 -0.0486
 2978SOL    HW1 8990   1.753   0.864   3.402 -3.0362 -0.7492  1.4311
 2978SOL    HW2 8991   1.818   0.871   3.538  2.0100  0.4355 -0.8044
 2979SOL     OW 8992   2.573   1.163   4.138 -0.0926 -0.0050  0.0902
 2979SOL    HW1 8993   2.571   1.125   4.050  1.9370 -1.0300  0.4343
 2979SOL    HW2 8994   2.664   1.155   4.166 -0.2552  2.1776  1.5137
 2980SOL     OW 8995   3.070   1.168   1.161 -0.0999 -0.5121  0.0792
 2980SOL    HW1 8996   3.125   1.100   1.122 -0.5208 -0.4864 -0.5669
 2980SOL    HW2 8997   2.998   1.179   1.099 -0.8461 -0.5501  0.9213
 2981SOL     OW 8998   3.694   3.355   4.768 -0.2828 -0.0976  0.3902
 2981SOL    HW1 8999   3.627   3.422   4.753 -0.1190  0.2618  1.1940
 2981SOL    HW2 9000   3.723   3.370   4.858 -1.1351 -2.0446  1.0515
 2982SOL     OW 9001   1.764   4.024   2.330  0.0992 -0.0672  0.2395
 2982SOL    HW1 9002   1.853   3.997   2.310  0.0857  1.5820 -2.4507
 2982SOL    HW2 9003   1.763   4.119   2.314 -2.1302 -0.0343  0.1996
 2983SOL     OW 9004   3.234   3.099   0.830  0.3078 -0.0333  0.6927
 2983SOL    HW1 9005   3.282   3.138   0.758 -2.0197  1.7417 -0.0249
 2983SOL    HW2 9006   3.284   3.123   0.908  1.4221  0.3299 -0.1053
 2984SOL     OW 9007   4.160   0.247   4.822 -0.3361 -0.1645  0.1969
 2984SOL    HW1 9008   4.184   0.235   4.730 -0.5449 -2.4524  0.3794
 2984SOL    HW2 9009   4.234   0.294   4.861  1.0972 -1.7424 -0.5262
 2985SOL     OW 9010   2.684   2.180   3.750 -0.5029  0.4897 -0.0322
 2985SOL    HW1 9011   2.669   2.086   3.750 -3.2698  0.8473  0.8103
 2985SOL    HW2 9012   2.726   2.198   3.666  1.6925 -1.6349  0.4717
 2986SOL     OW 9013   1.198   1.514   0.622 -0.3698 -0.7647  0.3695
 2986SOL    HW1 9014   1.132   1.445   0.624 -2.4327  1.0776  1.8217
 2986SOL    HW2 9015   1.175   1.571   0.696  1.7925  0.9537 -0.1638
 2987SOL     OW 9016   0.327   4.108   0.940  0.6901 -0.0307 -0.5778
 2987SOL    HW1 9017   0.362   4.178   0.996  1.0563 -0.2485 -0.5322
 2987SOL    HW2 9018   0.358   4.129   0.852 -2.2975  1.9650 -1.3049
 2988SOL     OW 9019   0.683   1.068   4.840  0.1051  0.0871 -0.1649
 2988SOL    HW1 9020   0.622   1.011   4.793 -0.5913 -0.4795  1.3633
 2988SOL    HW2 9021   0.681   1.150   4.790 -1.9835  0.1114 -0.1466
 2989SOL     OW 9022   3.461   1.419   4.351  0.3580  0.1903 -0.2834
 2989SOL    HW1 9023   3.427   1.365   4.422  1.5133 -1.1441 -0.6846
 2989SOL    HW2 9024   3.385   1.441   4.298 -0.1161 -1.3845 -0.3015
 2990SOL     OW 9025   1.501   4.305   4.214  0.2033 -0.3051 -0.0085
 2990SOL    HW1 9026   1.535   4.218   4.237 -1.6661 -1.2746 -0.7408
 2990SOL    HW2 9027   1.545   4.326   4.131 -0.6243 -1.3743 -0.7518
 2991SOL     OW 9028   4.187   1.086   0.544 -0.0403  0.0028  0.1439
 2991SOL    HW1 9029   4.139   1.036   0.611 -1.6851  0.0217 -0.9430
 2991SOL    HW2 9030   4.258   1.128   0.591 -1.1063 -0.0269  1.8741
 2992SOL     OW 9031   0.176   3.875   4.678  0.1220  0.5253 -0.4694
 2992SOL    HW1 9032   0.205   3.887   4.588 -1.6070  1.7632 -0.9059
 2992SOL    HW2 9033   0.089   3.913   4.681  0.6921  1.9086  2.0909
 2993SOL     OW 9034   1.369   2.550   0.914  0.7076 -0.2973 -0.5647
 2993SOL    HW1 9035   1.282   2.536   0.950  0.8327 -2.3769 -0.9037
 2993SOL    HW2 9036   1.355   2.598   0.833 -0.1127 -0.3934 -0.4883
 2994SOL     OW 9037   1.406   0.352   3.359 -0.5124  0.4711  0.0718
 2994SOL    HW1 9038   1.339   0.421   3.359 -0.2630  0.7227  0.4305
 2994SOL    HW2 9039   1.384   0.299   3.436 -0.1906  0.6708  0.3058
 2995SOL     OW 9040   0.697   2.648   0.642  0.1172  0.5435  0.2631
 2995SOL    HW1 9041   0.684   2.729   0.691 -1.4504  0.0097  0.8024
 2995SOL    HW2 9042   0.682   2.672   0.551  0.2787  0.9719  0.3454
 2996SOL     OW 9043   2.202   3.832   0.731  0.3825  0.1973  0.2490
 2996SOL    HW1 9044   2.214   3.804   0.641  2.3708  1.8046 -0.0434
 2996SOL    HW2 9045   2.258   3.774   0.782  0.3955  0.2363  0.2789
 2997SOL     OW 9046   3.391   4.755   2.745 -0.2558  0.1101 -1.5605
 2997SOL    HW1 9047   3.357   4.803   2.820  1.2680  0.6219 -1.1675
 2997SOL    HW2 9048   3.412   4.668   2.779  2.0657  0.8618 -0.9053
 2998SOL     OW 9049   0.303   2.698   0.538 -0.8640 -0.0382 -0.3125
 2998SOL    HW1 9050   0.254   2.681   0.619  0.4966  1.3195  0.8437
 2998SOL    HW2 9051   0.353   2.618   0.524  0.2889  0.3522  1.2632
 2999SOL     OW 9052   1.725   2.116   3.951 -0.7068  0.2026 -0.3271
 2999SOL    HW1 9053   1.732   2.207   3.980 -2.2798 -0.1003  1.1567
 2999SOL    HW2 9054   1.723   2.065   4.032  2.6509 -1.4580 -1.1137
 3000SOL     OW 9055   3.571   4.889   2.545  0.8290  0.2992 -0.8625
 3000SOL    HW1 9056   3.663   4.868   2.560  0.7228 -0.2172 -0.9123
 3000SOL    HW2 9057   3.527   4.866   2.626  0.7019  0.2868 -0.9345
 3001SOL     OW 9058   4.066   0.765   0.346 -0.2455  0.9108  0.1834
 3001SOL    HW1 9059   4.076   0.860   0.348  1.2677  0.7533  1.1511
 3001SOL    HW2 9060   4.137   0.734   0.290 -0.2484  0.2875  0.5201
 3002SOL     OW 9061   3.134   0.942   0.025  0.2889 -0.4089  0.1968
 3002SOL    HW1 9062   3.128   1.029   0.064 -0.8232 -1.2180  1.9899
 3002SOL    HW2 9063   3.159   0.885   0.098  1.2460 -1.5817 -0.9896
 3003SOL     OW 9064   4.518   3.898   2.345 -0.4426  0.0936 -0.2266
 3003SOL    HW1 9065   4.428   3.924   2.328  0.0383  1.2122 -1.1238
 3003SOL    HW2 9066   4.553   3.967   2.402 -0.3259 -0.6517  0.6238
 3004SOL     OW 9067   4.261   3.085   1.362  0.1156  0.4189  0.2413
 3004SOL    HW1 9068   4.201   3.158   1.347 -1.2155 -0.1079  2.5360
 3004SOL    HW2 9069   4.332   3.099   1.299 -2.4770  0.9475 -2.7956
 3005SOL     OW 9070   2.258   4.783   1.615 -0.1091  0.4000 -0.2947
 3005SOL    HW1 9071   2.286   4.700   1.577  1.1028  1.5032 -1.9820
 3005SOL    HW2 9072   2.328   4.845   1.592 -1.2900  2.0392  0.2854
 3006SOL     OW 9073   4.770   1.965   1.766 -0.0181 -0.1400  0.1674
 3006SOL    HW1 9074   4.681   1.997   1.754 -0.1742 -1.0871 -1.5281
 3006SOL    HW2 9075   4.822   2.043   1.785 -1.0427  0.5548  0.1706
 3007SOL     OW 9076   2.502   3.130   1.090 -0.6824  0.2500 -0.8630
 3007SOL    HW1 9077   2.452   3.129   1.172  1.1437 -1.0215  0.3320
 3007SOL    HW2 9078   2.447   3.085   1.027 -0.8954 -1.5993  0.5458
 3008SOL     OW 9079   1.845   4.929   2.526  0.3455  0.0685 -0.0288
 3008SOL    HW1 9080   1.803   4.874   2.593  1.3051  0.0080  0.5454
 3008SOL    HW2 9081   1.938   4.925   2.547  0.5330  1.0861 -0.6093
 3009SOL     OW 9082   0.442   2.719   0.175 -0.0804  0.0735 -0.3272
 3009SOL    HW1 9083   0.451   2.746   0.084 -0.2190 -0.9620 -0.6661
 3009SOL    HW2 9084   0.348   2.714   0.190 -0.0556 -0.1436 -0.2436
 3010SOL     OW 9085   3.272   2.140   2.250  0.0857 -0.3304 -0.3854
 3010SOL    HW1 9086   3.325   2.113   2.325 -0.9443  0.6725  0.7451
 3010SOL    HW2 9087   3.239   2.227   2.273  0.6308  0.5035 -2.4930
 3011SOL     OW 9088   1.229   1.570   3.730  0.0320  0.1392  0.2984
 3011SOL    HW1 9089   1.291   1.556   3.801 -0.2367  0.4682  0.6019
 3011SOL    HW2 9090   1.280   1.554   3.650  0.3202 -0.2824  0.5638
 3012SOL     OW 9091   2.769   1.012   0.954 -0.0155  0.3121  0.3040
 3012SOL    HW1 9092   2.806   1.097   0.930  0.8954 -0.3840 -0.8601
 3012SOL    HW2 9093   2.678   1.031   0.978  0.3969  1.7131  0.8312
 3013SOL     OW 9094   2.269   1.316   3.537 -0.3919 -0.2677  0.3259
 3013SOL    HW1 9095   2.360   1.316   3.510 -0.3773  0.8735  0.3405
 3013SOL    HW2 9096   2.220   1.339   3.458 -0.6381 -0.5492  0.3944
 3014SOL     OW 9097   2.209   2.483   3.658  0.4376 -0.0523  0.5999
 3014SOL    HW1 9098   2.213   2.387   3.652 -1.1615 -0.0441 -3.3303
 3014SOL    HW2 9099   2.161   2.499   3.740 -0.2015 -2.6383  0.8416
 3015SOL     OW 9100   4.565   1.778   4.235  0.0864  0.1265  1.1067
 3015SOL    HW1 9101   4.564   1.736   4.149  0.2736 -0.5200  1.4136
 3015SOL    HW2 9102   4.635   1.734   4.283 -0.6123 -0.1432  1.9003
 3016SOL     OW 9103   1.667   1.514   0.411  0.4050  0.4725 -0.2232
 3016SOL    HW1 9104   1.582   1.549   0.438  0.1232 -0.2636 -0.1522
 3016SOL    HW2 9105   1.665   1.516   0.315  0.5128  0.9283 -0.2204
 3017SOL     OW 9106   2.411   3.923   0.349 -0.6310 -0.5790  0.0825
 3017SOL    HW1 9107   2.452   4.004   0.379 -3.6605  0.9882  0.3929
 3017SOL    HW2 9108   2.474   3.886   0.287  1.0986  1.7295  0.3169
 3018SOL     OW 9109   4.694   0.479   2.226 -0.1099  0.0227  0.2473
 3018SOL    HW1 9110   4.655   0.399   2.190 -0.3068  0.2154  0.0315
 3018SOL    HW2 9111   4.721   0.529   2.148  1.3917 -0.5094  0.3798
 3019SOL     OW 9112   2.277   2.543   1.504  0.2620 -0.2811 -0.1166
 3019SOL    HW1 9113   2.190   2.583   1.496  0.3680  0.3918  1.7219
 3019SOL    HW2 9114   2.324   2.572   1.425 -0.9148 -0.0392 -0.7552
 3020SOL     OW 9115   4.907   3.507   2.225  0.5131 -0.3425  0.4765
 3020SOL    HW1 9116   4.955   3.441   2.274 -0.2409 -0.7778  0.6381
 3020SOL    HW2 9117   4.821   3.468   2.208  0.3604  0.2468 -0.1910
 3021SOL     OW 9118   0.315   0.245   3.440 -0.0808  0.0932 -0.0642
 3021SOL    HW1 9119   0.232   0.199   3.449 -0.0802 -0.4845 -2.2921
 3021SOL    HW2 9120   0.368   0.187   3.385  1.5151  0.8167  0.6499
 3022SOL     OW 9121   2.548   3.439   1.169  0.4405  0.2122 -0.1136
 3022SOL    HW1 9122   2.535   3.373   1.237  1.9639  0.1010  0.1136
 3022SOL    HW2 9123   2.642   3.457   1.172  0.0776  2.3206 -0.2444
 3023SOL     OW 9124   4.753   1.841   1.534 -0.7628  0.1291  0.4842
 3023SOL    HW1 9125   4.659   1.832   1.516 -0.5082  0.2196 -1.0576
 3023SOL    HW2 9126   4.758   1.864   1.626 -2.2280 -0.4362  0.7280
 3024SOL     OW 9127   1.656   0.653   2.110  0.2565  0.1458  0.2281
 3024SOL    HW1 9128   1.636   0.561   2.094  0.2788 -0.1054  1.5993
 3024SOL    HW2 9129   1.593   0.700   2.055 -0.1178 -0.6768 -0.0669
 3025SOL     OW 9130   2.284   2.316   4.028 -0.2265  0.3615 -0.4773
 3025SOL    HW1 9131   2.221   2.323   4.100 -0.6197  1.1881 -0.8940
 3025SOL    HW2 9132   2.277   2.399   3.981  0.4538  0.0646 -1.1295
 3026SOL     OW 9133   2.717   3.857   2.661 -0.5939 -0.1991  0.0848
 3026SOL    HW1 9134   2.669   3.928   2.619 -0.1519  0.0217 -0.0531
 3026SOL    HW2 9135   2.742   3.893   2.746  0.0803 -0.0042 -0.1939
 3027SOL     OW 9136   2.465   3.703   1.869  0.4002  0.4621 -0.0821
 3027SOL    HW1 9137   2.493   3.612   1.867  2.4690  1.0489 -0.6472
 3027SOL    HW2 9138   2.448   3.725   1.777  0.8048  0.8926 -0.0573
 3028SOL     OW 9139   2.378   1.944   3.290 -0.4392 -0.0997 -0.3152
 3028SOL    HW1 9140   2.395   1.893   3.369 -3.0386  0.2375  0.5468
 3028SOL    HW2 9141   2.407   2.033   3.313  1.0836 -0.4793 -0.6646
 3029SOL     OW 9142   3.670   0.141   0.439 -0.1120 -0.0772 -0.1891
 3029SOL    HW1 9143   3.665   0.145   0.344  1.6926  2.8088 -0.2941
 3029SOL    HW2 9144   3.763   0.153   0.459 -0.2023 -2.0874  1.9672
 3030SOL     OW 9145   3.067   0.773   1.929  0.0304  0.4345 -0.1022
 3030SOL    HW1 9146   3.035   0.829   2.000 -1.1225  1.7007 -1.5528
 3030SOL    HW2 9147   3.141   0.822   1.892 -1.2393  1.2938 -1.6421
 3031SOL     OW 9148   1.790   2.586   3.807 -0.7139 -0.0718  0.0907
 3031SOL    HW1 9149   1.799   2.679   3.787  0.0544  0.2027  1.5874
 3031SOL    HW2 9150   1.701   2.576   3.840 -1.3699 -0.2032 -1.6163
 3032SOL     OW 9151   1.136   1.574   1.874 -0.2551  0.6283 -0.4878
 3032SOL    HW1 9152   1.166   1.614   1.792  2.0926  0.0679  0.0508
 3032SOL    HW2 9153   1.191   1.614   1.942 -0.8460 -0.3438  0.5917
 3033SOL     OW 9154   0.029   1.353   4.166  0.2293  0.4540  0.2544
 3033SOL    HW1 9155  -0.002   1.342   4.256 -0.3819  0.6953  0.0779
 3033SOL    HW2 9156   0.092   1.282   4.154  1.1568  1.0874  1.2317
 3034SOL     OW 9157   0.353   3.413   3.597 -0.1181 -0.6542  0.0565
 3034SOL    HW1 9158   0.415   3.464   3.544 -1.0392  0.3087 -0.1340
 3034SOL    HW2 9159   0.405   3.341   3.632  0.7131 -0.8364 -1.4676
 3035SOL     OW 9160   0.523   4.795   1.050  0.2148 -0.4178  0.1416
 3035SOL    HW1 9161   0.448   4.769   1.103 -0.7067  1.0278 -0.3941
 3035SOL    HW2 9162   0.548   4.715   1.003 -1.3104 -0.8041 -0.0636
 3036SOL     OW 9163   3.216   1.386   2.338 -0.4721  0.1958 -0.4475
 3036SOL    HW1 9164   3.127   1.422   2.336 -1.0245 -1.1215 -0.6198
 3036SOL    HW2 9165   3.205   1.293   2.319  0.8570 -0.1742  0.4414
 3037SOL     OW 9166   2.187   3.100   3.960  0.0363 -0.2714 -0.6031
 3037SOL    HW1 9167   2.113   3.161   3.952 -2.2588 -2.9244 -1.4796
 3037SOL    HW2 9168   2.171   3.054   4.042  0.3593 -1.2711 -1.0845
 3038SOL     OW 9169   1.292   2.374   0.340 -0.5281 -0.4884 -0.6672
 3038SOL    HW1 9170   1.341   2.293   0.329 -0.2383 -0.2866 -0.8961
 3038SOL    HW2 9171   1.257   2.392   0.252 -0.2960 -0.1821 -0.6980
 3039SOL     OW 9172   2.422   0.610   0.044 -0.1187  0.4156 -0.2498
 3039SOL    HW1 9173   2.514   0.629   0.057 -0.4325  2.2313 -0.3939
 3039SOL    HW2 9174   2.420   0.522   0.007  1.5581  0.4219 -0.4085
 3040SOL     OW 9175   3.871   1.799   4.781 -0.1059 -0.1660 -0.0415
 3040SOL    HW1 9176   3.794   1.786   4.726 -1.1822  0.7902  1.1793
 3040SOL    HW2 9177   3.856   1.884   4.822  1.4525 -0.1200  0.4796
 3041SOL     OW 9178   1.601   3.888   2.921  0.0962 -0.2475  0.1029
 3041SOL    HW1 9179   1.647   3.860   2.842 -1.2787  2.1722 -1.7186
 3041SOL    HW2 9180   1.671   3.911   2.982  1.2227 -1.2146 -0.7727
 3042SOL     OW 9181   2.411   1.490   3.276  0.1097 -0.8597  0.1895
 3042SOL    HW1 9182   2.418   1.535   3.191  0.3976  1.5059  1.3835
 3042SOL    HW2 9183   2.356   1.548   3.329  1.3137 -1.4091  2.1431
 3043SOL     OW 9184   4.785   3.125   2.523 -0.2038  0.3152  0.1102
 3043SOL    HW1 9185   4.720   3.149   2.588  0.2411  3.1573 -0.3477
 3043SOL    HW2 9186   4.868   3.127   2.571 -0.1705 -0.8568  0.1380
 3044SOL     OW 9187   4.321   3.164   4.251 -0.3321 -0.3614 -0.1614
 3044SOL    HW1 9188   4.383   3.131   4.186  0.5372  1.3250 -0.2345
 3044SOL    HW2 9189   4.244   3.189   4.199 -0.1747 -0.3156 -0.3753
 3045SOL     OW 9190   4.356   2.872   1.566 -0.0040  0.0367 -0.1169
 3045SOL    HW1 9191   4.385   2.796   1.517  1.2507  0.1823  0.3696
 3045SOL    HW2 9192   4.360   2.945   1.504 -1.0434 -0.2364 -0.5336
 3046SOL     OW 9193   3.938   4.492   3.019 -0.7110  0.4836  0.4329
 3046SOL    HW1 9194   3.970   4.561   2.961  1.1931  1.4577  2.4788
 3046SOL    HW2 9195   3.976   4.411   2.984 -0.6648  0.8612 -0.4115
 3047SOL     OW 9196   3.092   1.752   3.965  0.2846 -0.1701 -0.0904
 3047SOL    HW1 9197   3.065   1.763   3.874  1.6443 -0.4591 -0.5600
 3047SOL    HW2 9198   3.143   1.671   3.965  0.2322 -0.2186  0.9504
 3048SOL     OW 9199   3.529   4.450   0.903 -0.1482 -0.4995 -0.4388
 3048SOL    HW1 9200   3.463   4.394   0.942 -0.8635  0.2814 -0.4912
 3048SOL    HW2 9201   3.483   4.532   0.884  0.4610 -0.4296 -1.7974
 3049SOL     OW 9202   2.958   0.544   0.699 -0.0449  0.3391 -0.3032
 3049SOL    HW1 9203   2.866   0.535   0.676  0.1585 -1.3387 -0.6387
 3049SOL    HW2 9204   2.983   0.630   0.667 -1.3194  0.5361 -0.8290
 3050SOL     OW 9205   4.080   3.897   4.188  0.1319 -0.5838 -0.1511
 3050SOL    HW1 9206   4.087   3.987   4.155 -2.3420  0.5526  1.9736
 3050SOL    HW2 9207   4.009   3.858   4.137 -1.6493  0.1720  1.6160
 3051SOL     OW 9208   2.234   4.603   1.023 -0.4892  0.1996  0.0940
 3051SOL    HW1 9209   2.239   4.509   1.010  1.1892  0.2757 -0.1242
 3051SOL    HW2 9210   2.273   4.640   0.944 -2.7766  1.1740 -0.6539
 3052SOL     OW 9211   2.439   0.708   2.876  0.2440  0.1879  0.3055
 3052SOL    HW1 9212   2.374   0.694   2.807  3.0702 -0.1152 -2.5206
 3052SOL    HW2 9213   2.478   0.793   2.855  0.6012  0.5348  2.1598
 3053SOL     OW 9214   4.474   2.537   4.304  0.3427  0.4862 -0.4376
 3053SOL    HW1 9215   4.472   2.518   4.210 -0.4932  1.3593 -0.6161
 3053SOL    HW2 9216   4.502   2.629   4.309  2.5969 -0.1844  0.2890
 3054SOL     OW 9217   3.220   1.290   3.272  0.0670  0.0466 -0.4951
 3054SOL    HW1 9218   3.173   1.214   3.307  0.3556  0.4991  0.9522
 3054SOL    HW2 9219   3.193   1.363   3.328  1.9587  0.4429 -0.0196
 3055SOL     OW 9220   3.992   0.859   2.811 -0.3784 -0.4140  0.3535
 3055SOL    HW1 9221   3.920   0.915   2.781  0.6710  2.0969  2.1140
 3055SOL    HW2 9222   3.956   0.810   2.884 -0.5822  0.0475  0.5655
 3056SOL     OW 9223   1.070   1.929   4.028  0.2495 -0.1140 -0.0671
 3056SOL    HW1 9224   1.123   2.007   4.011 -0.6895  0.8026  1.0651
 3056SOL    HW2 9225   1.009   1.956   4.096 -0.6467 -1.6073 -0.2416
 3057SOL     OW 9226   0.801   1.044   1.290 -0.1328 -0.1174  0.1953
 3057SOL    HW1 9227   0.872   1.106   1.272 -0.2447 -0.2934 -0.9613
 3057SOL    HW2 9228   0.820   0.969   1.234 -0.8802 -0.4283  0.3489
 3058SOL     OW 9229   1.756   1.935   3.780  0.3970  0.0887 -0.0212
 3058SOL    HW1 9230   1.822   1.966   3.717  0.3906  0.6504  0.2489
 3058SOL    HW2 9231   1.747   2.006   3.843  0.7503 -0.6608  0.8937
 3059SOL     OW 9232   3.091   2.480   4.621  0.5946 -0.7222 -0.0916
 3059SOL    HW1 9233   3.144   2.414   4.665  0.9933 -1.0614 -1.0552
 3059SOL    HW2 9234   3.153   2.548   4.596  0.3544 -0.4743 -0.0072
 3060SOL     OW 9235   1.777   3.032   1.060 -0.6321  0.3616  0.4473
 3060SOL    HW1 9236   1.742   2.980   1.132  1.5183  0.0538  1.3392
 3060SOL    HW2 9237   1.828   2.969   1.007 -0.2333  1.0325  0.0129
 3061SOL     OW 9238   1.959   4.653   0.740 -0.1360 -0.3985  0.3027
 3061SOL    HW1 9239   2.013   4.624   0.666  1.4346 -0.5189  1.4575
 3061SOL    HW2 9240   1.967   4.583   0.804 -1.8194 -0.4797  0.4512
 3062SOL     OW 9241   3.604   1.678   4.882  0.1138 -0.3865  0.0411
 3062SOL    HW1 9242   3.638   1.688   4.794 -0.5532  0.1808 -0.1520
 3062SOL    HW2 9243   3.611   1.584   4.900  2.2478 -0.2365  0.2094
 3063SOL     OW 9244   3.454   1.541   0.366 -0.0670  0.3852  0.4393
 3063SOL    HW1 9245   3.544   1.565   0.347 -0.0591 -0.2071 -0.3459
 3063SOL    HW2 9246   3.455   1.445   0.367 -0.8418  0.3498 -0.4452
 3064SOL     OW 9247   0.537   0.735   4.943  0.0186  0.3861 -0.5629
 3064SOL    HW1 9248   0.515   0.644   4.927  0.6377  0.3936 -1.5260
 3064SOL    HW2 9249   0.463   0.785   4.908 -0.2373  0.2625 -0.1978
 3065SOL     OW 9250   4.592   3.818   4.033 -0.0606  0.0643  0.2054
 3065SOL    HW1 9251   4.506   3.819   3.990  1.1688 -1.0050 -2.4591
 3065SOL    HW2 9252   4.571   3.826   4.126 -2.8914  2.8289 -0.4770
 3066SOL     OW 9253   1.047   4.811   1.865  0.0515  0.6068  0.0544
 3066SOL    HW1 9254   1.060   4.896   1.908  2.4508  0.3207  0.0695
 3066SOL    HW2 9255   1.050   4.832   1.771  1.6105  0.4938  0.0435
 3067SOL     OW 9256   1.691   4.700   2.337 -0.4375  0.6693 -0.1427
 3067SOL    HW1 9257   1.654   4.786   2.316 -0.0070  1.1168  0.8752
 3067SOL    HW2 9258   1.783   4.718   2.357  0.1299 -0.2993 -1.7198
 3068SOL     OW 9259   1.982   0.726   2.454  0.5520  0.2521  0.1568
 3068SOL    HW1 9260   2.066   0.683   2.436 -0.3179 -1.6702  0.4495
 3068SOL    HW2 9261   1.945   0.745   2.368  0.4661 -0.5962  0.0002
 3069SOL     OW 9262   2.303   3.440   3.651  0.2903  0.5867  0.3014
 3069SOL    HW1 9263   2.269   3.430   3.741  0.7466 -0.0856  0.4049
 3069SOL    HW2 9264   2.320   3.534   3.642 -1.6154  0.9663  0.2377
 3070SOL     OW 9265   0.385   2.470   4.889  0.4072  0.6988 -0.0308
 3070SOL    HW1 9266   0.338   2.450   4.808  0.6670 -1.5794  0.3098
 3070SOL    HW2 9267   0.325   2.527   4.938 -1.0277 -0.2571 -0.5956
 3071SOL     OW 9268   0.053   0.549   2.430 -0.4946  0.0826 -0.0506
 3071SOL    HW1 9269   0.078   0.531   2.339  0.9676  0.4373  0.2580
 3071SOL    HW2 9270  -0.036   0.514   2.438 -1.1770  1.2011 -1.9854
 3072SOL     OW 9271   3.778   3.546   1.941 -0.1704 -0.1460  0.4388
 3072SOL    HW1 9272   3.860   3.498   1.949  0.6567  0.4398 -3.0405
 3072SOL    HW2 9273   3.800   3.623   1.887 -2.9638  0.0524 -0.5832
 3073SOL     OW 9274   1.785   3.013   2.182 -0.2423  0.2296  0.3614
 3073SOL    HW1 9275   1.690   3.025   2.171 -0.5330 -1.2087  1.0479
 3073SOL    HW2 9276   1.799   2.920   2.164  1.1811  0.5893 -0.5165
 3074SOL     OW 9277   4.601   3.380   3.609  0.0451 -0.3829  0.2941
 3074SOL    HW1 9278   4.636   3.300   3.569  0.0352 -0.4021  0.3241
 3074SOL    HW2 9279   4.652   3.451   3.569  0.2106 -0.4210  0.4376
 3075SOL     OW 9280   2.393   1.916   1.390 -0.1098  0.5146 -0.4081
 3075SOL    HW1 9281   2.446   1.864   1.331 -2.3143  0.5282 -2.5786
 3075SOL    HW2 9282   2.416   2.007   1.369 -0.0950  0.4931 -0.4854
 3076SOL     OW 9283   1.197   2.306   4.674 -0.2967 -0.9289  0.0951
 3076SOL    HW1 9284   1.228   2.388   4.635 -3.0401  0.9458  1.6090
 3076SOL    HW2 9285   1.261   2.287   4.743 -1.1581  1.7016  1.7765
 3077SOL     OW 9286   3.544   3.709   0.864  0.0188 -0.2920 -0.2852
 3077SOL    HW1 9287   3.558   3.707   0.959  0.3157  3.3783 -0.1186
 3077SOL    HW2 9288   3.484   3.637   0.848 -1.6244  0.1257  3.0358
 3078SOL     OW 9289   1.657   0.050   4.717 -0.1017 -0.1835 -0.3387
 3078SOL    HW1 9290   1.693  -0.030   4.755 -1.4275 -0.0924  1.2185
 3078SOL    HW2 9291   1.617   0.096   4.791 -1.9093  0.5072 -1.6700
 3079SOL     OW 9292   1.548   1.069   3.543  0.5139 -0.2199 -0.1000
 3079SOL    HW1 9293   1.532   0.984   3.585 -0.4235 -0.8319 -1.6025
 3079SOL    HW2 9294   1.640   1.066   3.518  0.5737 -0.6544  0.1539
 3080SOL     OW 9295   0.548   0.726   1.243 -0.0268  0.6299 -0.0271
 3080SOL    HW1 9296   0.496   0.769   1.175  0.3358  2.6090  0.8638
 3080SOL    HW2 9297   0.639   0.739   1.215  0.1036  0.9231  0.5228
 3081SOL     OW 9298   3.802   1.303   1.555  0.0532 -0.5666 -0.5835
 3081SOL    HW1 9299   3.771   1.369   1.492 -1.1336 -2.3999 -2.0297
 3081SOL    HW2 9300   3.810   1.351   1.638  1.4018  1.8829 -1.9999
 3082SOL     OW 9301   4.744   3.887   2.188  0.0505  0.4455 -0.4724
 3082SOL    HW1 9302   4.665   3.887   2.242 -0.1489 -0.7542 -0.7561
 3082SOL    HW2 9303   4.815   3.902   2.251 -0.3270  0.8186 -0.1253
 3083SOL     OW 9304   1.516   2.504   0.027 -0.6759  0.1108 -0.4826
 3083SOL    HW1 9305   1.486   2.591   0.052 -1.5867  0.2602 -1.9302
 3083SOL    HW2 9306   1.519   2.507  -0.069  0.0126 -1.2249 -0.5303
 3084SOL     OW 9307   4.718   2.567   2.009  0.4695  0.1741  0.0177
 3084SOL    HW1 9308   4.718   2.649   1.959  1.6517  1.0184  1.3462
 3084SOL    HW2 9309   4.647   2.578   2.072 -2.0730 -1.5186 -2.3142
 3085SOL     OW 9310   0.062   2.894   1.811 -0.5421  0.5308  0.1286
 3085SOL    HW1 9311  -0.021   2.848   1.807 -0.0831 -0.3152  0.0745
 3085SOL    HW2 9312   0.120   2.836   1.860  0.2231  0.7663 -0.4668
 3086SOL     OW 9313   3.744   0.730   2.586  0.2504 -0.5865  0.1636
 3086SOL    HW1 9314   3.674   0.728   2.652 -1.0061  0.5358 -1.0717
 3086SOL    HW2 9315   3.744   0.642   2.548 -1.3710 -0.2618 -0.6667
 3087SOL     OW 9316   4.034   1.536   1.658 -0.4314 -0.2197 -0.2344
 3087SOL    HW1 9317   4.125   1.505   1.657 -0.3939 -0.1127 -0.1844
 3087SOL    HW2 9318   4.012   1.545   1.565  0.4056  2.0297 -0.2936
 3088SOL     OW 9319   1.085   3.682   3.294 -0.3865 -0.1784  1.2653
 3088SOL    HW1 9320   1.146   3.685   3.220  0.2554  0.9080  1.7995
 3088SOL    HW2 9321   1.141   3.695   3.371 -1.0289 -1.3682  1.9631
 3089SOL     OW 9322   3.406   4.806   1.317  0.1711  0.5764  0.1200
 3089SOL    HW1 9323   3.401   4.739   1.386 -0.1858  0.5797  0.0991
 3089SOL    HW2 9324   3.315   4.827   1.297  0.2579  0.1716 -0.7493
 3090SOL     OW 9325   4.216   4.352   0.511  0.0065 -0.2988  0.0622
 3090SOL    HW1 9326   4.299   4.344   0.557  0.2329  0.0142 -0.2920
 3090SOL    HW2 9327   4.170   4.422   0.556  0.8866  1.1156 -1.1692
 3091SOL     OW 9328   0.336   4.934   4.087  0.3157  0.3880 -0.0173
 3091SOL    HW1 9329   0.359   4.844   4.067  1.8255  0.3706  1.5438
 3091SOL    HW2 9330   0.240   4.934   4.093  0.3339 -1.2928  0.6898
 3092SOL     OW 9331   4.299   3.311   0.516  0.0015 -0.0572  0.3848
 3092SOL    HW1 9332   4.223   3.365   0.538 -0.6091  0.3361 -2.3026
 3092SOL    HW2 9333   4.275   3.223   0.544 -1.4491  0.0877 -0.3091
 3093SOL     OW 9334   4.712   2.307   1.476 -0.1933 -0.4444 -0.1444
 3093SOL    HW1 9335   4.672   2.247   1.540 -2.9463  0.6439 -0.7164
 3093SOL    HW2 9336   4.690   2.269   1.391  0.6637 -0.1645 -0.5057
 3094SOL     OW 9337   0.551   4.319   3.402  0.0370 -0.0155 -0.0884
 3094SOL    HW1 9338   0.497   4.241   3.415 -0.6179  0.5829  0.9525
 3094SOL    HW2 9339   0.488   4.391   3.397  0.6970  0.6696  0.9519
 3095SOL     OW 9340   0.392   2.780   1.257 -0.5277  0.6020 -0.1641
 3095SOL    HW1 9341   0.440   2.816   1.331 -0.3971  0.0872  0.0036
 3095SOL    HW2 9342   0.451   2.714   1.220 -1.5742 -0.9596  0.8138
 3096SOL     OW 9343   4.125   1.867   1.389 -0.6315  0.0088 -0.2491
 3096SOL    HW1 9344   4.176   1.946   1.375  0.0161 -0.8231 -3.1118
 3096SOL    HW2 9345   4.084   1.880   1.475  2.3960  1.7582  1.0653
 3097SOL     OW 9346   4.934   3.617   0.917 -0.3398  0.2777 -0.4341
 3097SOL    HW1 9347   4.872   3.676   0.876 -2.3564 -2.0020 -0.9205
 3097SOL    HW2 9348   4.882   3.567   0.980  2.0570  1.6233  2.9448
 3098SOL     OW 9349   1.923   2.025   3.093 -0.1800 -0.0665  0.2864
 3098SOL    HW1 9350   1.977   1.949   3.114 -1.3666 -0.9974  0.0428
 3098SOL    HW2 9351   1.963   2.097   3.142  1.3085 -0.7032  0.0556
 3099SOL     OW 9352   1.736   1.757   0.249  0.2082 -0.5788  0.3272
 3099SOL    HW1 9353   1.730   1.825   0.316 -0.4145 -0.6808  0.3733
 3099SOL    HW2 9354   1.807   1.700   0.281  2.4769  1.3388 -0.9123
 3100SOL     OW 9355   3.648   3.387   2.623 -0.2783  0.1066 -0.2670
 3100SOL    HW1 9356   3.596   3.467   2.631 -0.2690  0.0463  0.4842
 3100SOL    HW2 9357   3.666   3.361   2.713 -2.1844 -1.9957 -0.3891
 3101SOL     OW 9358   4.548   0.054   3.164 -0.0751 -0.0320 -0.2248
 3101SOL    HW1 9359   4.572   0.147   3.164 -2.5101  0.6702  0.6529
 3101SOL    HW2 9360   4.477   0.048   3.228 -0.6285 -2.3301 -0.9825
 3102SOL     OW 9361   4.411   0.618   0.527  0.3901 -0.1802 -0.0071
 3102SOL    HW1 9362   4.459   0.627   0.445  0.5263  0.9251  0.1727
 3102SOL    HW2 9363   4.458   0.548   0.574  1.1526  0.1197 -0.2985
 3103SOL     OW 9364   0.712   1.506   0.250 -0.2722  0.1241  0.0524
 3103SOL    HW1 9365   0.622   1.537   0.257 -0.2401  0.2772 -0.2218
 3103SOL    HW2 9366   0.742   1.538   0.165 -0.5259 -1.3615 -0.6481
 3104SOL     OW 9367   4.794   1.278   4.419 -0.3377  0.0890 -0.1411
 3104SOL    HW1 9368   4.719   1.224   4.445 -1.0253  1.1097  0.0224
 3104SOL    HW2 9369   4.863   1.254   4.480 -0.8224 -0.1663  0.3153
 3105SOL     OW 9370   2.879   1.029   3.873 -0.3127  0.1036 -0.4477
 3105SOL    HW1 9371   2.868   0.961   3.807  1.4393 -2.1340  1.3848
 3105SOL    HW2 9372   2.809   1.014   3.936  0.1549 -0.1046  0.0304
 3106SOL     OW 9373   0.084   1.766   0.714 -0.0887 -0.0382  0.0447
 3106SOL    HW1 9374   0.058   1.682   0.678 -1.1718  0.5869 -0.6769
 3106SOL    HW2 9375   0.018   1.786   0.780 -0.2604  0.5730 -0.2996
 3107SOL     OW 9376   1.038   1.214   1.570  0.2744  0.0668 -0.0392
 3107SOL    HW1 9377   1.118   1.265   1.575  0.4415 -0.0446 -1.2439
 3107SOL    HW2 9378   1.043   1.169   1.486 -1.0970  0.1420 -0.1908
 3108SOL     OW 9379   0.836   3.703   3.147 -0.0568 -0.2681 -0.0247
 3108SOL    HW1 9380   0.838   3.662   3.060  0.5676  0.8826 -0.5903
 3108SOL    HW2 9381   0.907   3.767   3.144  0.7784 -1.0354  1.7749
 3109SOL     OW 9382   2.045   4.688   4.213 -0.2785 -0.5734  0.3894
 3109SOL    HW1 9383   2.083   4.689   4.126 -1.9560  1.6583 -0.4039
 3109SOL    HW2 9384   1.975   4.624   4.208 -0.5340 -0.2658  0.0238
 3110SOL     OW 9385   1.556   1.243   4.290  0.2037  0.0491  0.1838
 3110SOL    HW1 9386   1.515   1.320   4.329 -1.2856 -0.8562  0.4895
 3110SOL    HW2 9387   1.618   1.212   4.356 -1.4970 -0.8205  1.4458
 3111SOL     OW 9388   4.105   2.355   3.043 -0.1044 -0.4209  0.2640
 3111SOL    HW1 9389   4.130   2.405   2.966 -0.2179 -1.5796 -0.5553
 3111SOL    HW2 9390   4.103   2.419   3.114 -0.3884  0.7512 -0.7664
 3112SOL     OW 9391   3.637   0.730   4.775  0.0626 -0.4387  0.1036
 3112SOL    HW1 9392   3.724   0.742   4.815 -1.0373  2.7430  1.9598
 3112SOL    HW2 9393   3.638   0.788   4.699 -0.9830  1.2277  1.2900
 3113SOL     OW 9394   3.073   4.263   4.111  0.0262 -0.6221 -0.1033
 3113SOL    HW1 9395   3.037   4.350   4.093 -2.9229 -1.5880  0.5515
 3113SOL    HW2 9396   2.997   4.210   4.135  1.7060 -3.4328 -0.5387
 3114SOL     OW 9397   2.247   0.927   4.609  0.3792 -0.2160  0.4176
 3114SOL    HW1 9398   2.275   0.935   4.700 -0.3200 -1.3185  0.7565
 3114SOL    HW2 9399   2.239   0.832   4.594  0.2637 -0.0461 -0.7176
 3115SOL     OW 9400   1.643   2.654   1.537 -0.2912  0.3562 -0.5023
 3115SOL    HW1 9401   1.579   2.709   1.582  0.3602  1.5187 -0.9489
 3115SOL    HW2 9402   1.724   2.666   1.585 -0.1938 -0.4667 -0.4367
 3116SOL     OW 9403   2.740   4.480   0.157 -0.5967 -0.5807  0.4502
 3116SOL    HW1 9404   2.659   4.507   0.114 -0.5882  0.0029  0.7873
 3116SOL    HW2 9405   2.794   4.559   0.160 -0.3997 -0.7286  1.0847
 3117SOL     OW 9406   0.846   0.304   3.496  0.0813 -0.0705 -0.0108
 3117SOL    HW1 9407   0.842   0.215   3.531  0.4575  0.2350  0.8177
 3117SOL    HW2 9408   0.774   0.350   3.540  2.0182  0.9719  2.3037
 3118SOL     OW 9409   2.496   1.629   1.766 -0.1828  0.0356  0.4139
 3118SOL    HW1 9410   2.477   1.641   1.859 -0.3023 -1.2614  0.5671
 3118SOL    HW2 9411   2.444   1.697   1.723 -1.0573 -0.0996  1.2086
 3119SOL     OW 9412   1.103   3.717   4.460  0.3313 -0.6734  0.6794
 3119SOL    HW1 9413   1.034   3.704   4.395 -0.0119  1.3633  0.5546
 3119SOL    HW2 9414   1.113   3.632   4.503 -1.5109 -1.2866 -0.0170
 3120SOL     OW 9415   3.783   3.675   4.484 -0.4542  0.1738 -0.3023
 3120SOL    HW1 9416   3.817   3.738   4.421  0.0557  0.5086  0.2963
 3120SOL    HW2 9417   3.734   3.612   4.431 -0.4310  0.7132 -0.9755
 3121SOL     OW 9418   2.131   4.294   1.011 -0.1673 -0.0108  0.0256
 3121SOL    HW1 9419   2.133   4.222   0.948 -0.0208  0.3460 -0.3856
 3121SOL    HW2 9420   2.071   4.358   0.973 -0.6882 -0.1292  0.6327
 3122SOL     OW 9421   1.414   0.917   2.843  0.0005 -0.2774  0.0359
 3122SOL    HW1 9422   1.483   0.981   2.861 -0.6939  0.3914  0.3382
 3122SOL    HW2 9423   1.406   0.916   2.748 -1.5549  1.7955  0.0863
 3123SOL     OW 9424   0.369   1.502   1.019  0.1230  0.2236 -0.4218
 3123SOL    HW1 9425   0.379   1.493   1.114  0.1563  0.8155 -0.3652
 3123SOL    HW2 9426   0.444   1.453   0.983 -0.1687 -0.4238 -0.1625
 3124SOL     OW 9427   1.537   1.723   1.579  0.3910 -0.4775  0.5758
 3124SOL    HW1 9428   1.597   1.759   1.514  0.5338 -2.3317 -0.3900
 3124SOL    HW2 9429   1.593   1.702   1.654  0.4833  0.2354  0.7127
 3125SOL     OW 9430   1.280   0.191   1.590  0.0509 -0.0339  0.1321
 3125SOL    HW1 9431   1.296   0.225   1.502  0.6016  1.4338  0.7586
 3125SOL    HW2 9432   1.367   0.164   1.620 -0.1223 -0.4450  0.2667
 3126SOL     OW 9433   0.582   3.038   0.957 -0.0034 -0.0718 -0.8249
 3126SOL    HW1 9434   0.612   3.128   0.964 -0.3461 -0.0364  0.8447
 3126SOL    HW2 9435   0.657   2.985   0.985 -0.5134 -0.1423  0.4996
 3127SOL     OW 9436   4.351   2.055   2.627  1.0388 -0.5315 -0.2149
 3127SOL    HW1 9437   4.327   1.962   2.622  0.4370 -0.3211 -1.6173
 3127SOL    HW2 9438   4.330   2.090   2.541 -0.4121  1.3142  0.8086
 3128SOL     OW 9439   1.429   0.833   3.372  0.1551  0.2566  0.1171
 3128SOL    HW1 9440   1.507   0.782   3.395  1.3203  1.2771 -1.4105
 3128SOL    HW2 9441   1.377   0.834   3.452  1.5356 -0.7481  1.0734
 3129SOL     OW 9442   4.442   4.754   1.342  0.7138 -0.0623 -0.0423
 3129SOL    HW1 9443   4.493   4.827   1.308  1.0505  0.6952  1.9939
 3129SOL    HW2 9444   4.461   4.752   1.435 -0.4340 -1.8492  0.2060
 3130SOL     OW 9445   1.770   2.733   4.786 -0.6997 -0.1908 -0.1849
 3130SOL    HW1 9446   1.777   2.783   4.705  0.0645  0.6688  0.3878
 3130SOL    HW2 9447   1.686   2.687   4.779 -0.7842  0.1148 -1.3149
 3131SOL     OW 9448   1.028   1.427   1.214 -0.5561 -0.3644 -0.0823
 3131SOL    HW1 9449   1.068   1.506   1.178 -1.0714  0.0793  0.3089
 3131SOL    HW2 9450   0.949   1.458   1.258 -1.4160 -1.2223 -0.9509
 3132SOL     OW 9451   2.941   3.463   2.624 -0.2525 -0.5839  0.2133
 3132SOL    HW1 9452   2.968   3.450   2.533  0.5414 -2.2668  0.6478
 3132SOL    HW2 9453   2.943   3.558   2.636  0.1274 -0.3596 -1.3745
 3133SOL     OW 9454   2.230   3.442   4.803  0.7400  0.1325  0.3153
 3133SOL    HW1 9455   2.207   3.395   4.883 -1.8931 -0.0091 -0.4626
 3133SOL    HW2 9456   2.237   3.533   4.830 -0.1338  0.0870  0.7101
 3134SOL     OW 9457   1.889   3.586   0.024  0.4854  0.2880  0.0318
 3134SOL    HW1 9458   1.867   3.666  -0.024  0.8586  0.3932  0.0327
 3134SOL    HW2 9459   1.968   3.609   0.074  1.3182 -0.4287 -0.9043
 3135SOL     OW 9460   3.075   1.614   4.610 -0.4788 -0.0002 -0.3295
 3135SOL    HW1 9461   3.012   1.560   4.659  0.4914  0.2166  1.2409
 3135SOL    HW2 9462   3.123   1.662   4.678  0.1786  1.1776 -1.5802
 3136SOL     OW 9463   1.827   1.645   0.829  0.2530  0.9331  0.1833
 3136SOL    HW1 9464   1.763   1.578   0.853 -2.3325  3.0196 -0.3999
 3136SOL    HW2 9465   1.893   1.641   0.898 -1.2957 -0.3569  1.6951
 3137SOL     OW 9466   2.042   0.092   2.015 -0.2170  0.0296  0.2106
 3137SOL    HW1 9467   2.035   0.182   2.047 -3.4002 -0.8364  2.4366
 3137SOL    HW2 9468   2.076   0.043   2.089 -0.1600 -0.8615 -0.3919
 3138SOL     OW 9469   2.288   3.443   1.055  1.4730  0.4854 -0.0708
 3138SOL    HW1 9470   2.236   3.470   1.131 -0.0242 -1.3733 -0.3542
 3138SOL    HW2 9471   2.375   3.427   1.090  0.7024 -0.8018  1.3961
 3139SOL     OW 9472   0.705   2.354   4.248 -0.1346  0.2777 -0.4601
 3139SOL    HW1 9473   0.783   2.404   4.225  0.9542 -0.2113  1.8565
 3139SOL    HW2 9474   0.694   2.292   4.176  0.8680  1.1639 -1.4172
 3140SOL     OW 9475   4.900   2.557   3.943 -0.2121 -0.1563  0.3390
 3140SOL    HW1 9476   4.903   2.577   4.037  1.4336  0.3310  0.2154
 3140SOL    HW2 9477   4.951   2.627   3.902 -1.8720  0.2822 -1.0625
 3141SOL     OW 9478   4.337   2.282   3.979  0.0976 -0.0251  0.1247
 3141SOL    HW1 9479   4.422   2.241   3.966  0.9444  1.4666  0.6977
 3141SOL    HW2 9480   4.287   2.259   3.900  1.1992 -0.4907 -0.4575
 3142SOL     OW 9481   0.240   2.463   1.070 -0.5446  0.2189 -0.9149
 3142SOL    HW1 9482   0.276   2.547   1.042 -1.0152  1.6919  2.3875
 3142SOL    HW2 9483   0.305   2.428   1.131 -0.0882 -2.2121 -2.6114
 3143SOL     OW 9484   1.270   0.263   2.642 -0.2041  0.1354  0.5765
 3143SOL    HW1 9485   1.329   0.222   2.705  0.4206  1.7577  1.0984
 3143SOL    HW2 9486   1.292   0.356   2.646 -2.3844  0.7120  0.3201
 3144SOL     OW 9487  -0.027   0.447   3.951  0.4454  0.8070 -0.1859
 3144SOL    HW1 9488  -0.011   0.401   3.869  1.3471  1.8792 -0.6496
 3144SOL    HW2 9489   0.048   0.506   3.960 -0.3597  1.7414  0.6735
 3145SOL     OW 9490   2.385   3.705   3.676 -0.2632 -0.5509  0.3156
 3145SOL    HW1 9491   2.378   3.701   3.772 -1.3883 -0.0790  0.2630
 3145SOL    HW2 9492   2.302   3.742   3.647  0.2320 -0.2893 -0.8260
 3146SOL     OW 9493   3.827   3.250   3.511 -0.0047 -0.0682  0.2496
 3146SOL    HW1 9494   3.765   3.179   3.495  1.6194 -1.9230  1.7178
 3146SOL    HW2 9495   3.911   3.216   3.480  0.5346  2.0082 -0.7949
 3147SOL     OW 9496   2.901   2.416   3.902  0.0159  0.2738  0.3126
 3147SOL    HW1 9497   2.884   2.351   3.834  3.3568 -0.2939 -0.1198
 3147SOL    HW2 9498   2.925   2.495   3.855  0.1472  0.5585  0.8506
 3148SOL     OW 9499   3.728   0.314   2.111  0.3528  0.3499  0.0276
 3148SOL    HW1 9500   3.657   0.331   2.050  0.6232 -0.6851 -0.6042
 3148SOL    HW2 9501   3.700   0.356   2.193 -0.7122  0.4506 -0.3713
 3149SOL     OW 9502   2.104   4.219   3.822  0.7767 -0.4902  0.0389
 3149SOL    HW1 9503   2.110   4.174   3.738  0.6293  1.8841 -1.3214
 3149SOL    HW2 9504   2.025   4.184   3.862 -0.9527  0.5282 -2.2533
 3150SOL     OW 9505   1.259   3.906   1.344  0.1618 -0.5867  0.0301
 3150SOL    HW1 9506   1.254   3.918   1.439  0.4405 -2.9041  0.3872
 3150SOL    HW2 9507   1.215   3.984   1.308 -1.0456 -0.2507  2.0630
 3151SOL     OW 9508   3.974   0.567   3.598 -0.7348  0.2112 -0.3210
 3151SOL    HW1 9509   3.925   0.503   3.651 -1.2932  1.6187  0.9312
 3151SOL    HW2 9510   4.029   0.613   3.661  0.9537 -0.1484 -1.4612
 3152SOL     OW 9511   2.096   0.989   2.825 -0.7392 -0.5124  0.2334
 3152SOL    HW1 9512   2.136   0.972   2.911  0.4652 -0.7249 -0.3512
 3152SOL    HW2 9513   2.116   1.081   2.808  0.1427 -0.8086 -0.3783
 3153SOL     OW 9514   1.991   2.236   0.728  0.2544 -0.2715 -0.2726
 3153SOL    HW1 9515   1.991   2.153   0.682 -0.9244 -1.0463  1.0396
 3153SOL    HW2 9516   1.962   2.215   0.816 -0.1412  1.5417  0.0805
 3154SOL     OW 9517   4.451   1.335   3.232  0.6640  0.3679 -0.5141
 3154SOL    HW1 9518   4.392   1.273   3.275  1.7029 -1.1349 -1.1401
 3154SOL    HW2 9519   4.407   1.420   3.238 -0.5304 -0.3178  0.9204
 3155SOL     OW 9520   2.663   0.090   0.928 -0.3527 -0.5036  0.1736
 3155SOL    HW1 9521   2.639   0.076   1.020  1.3870 -0.3316  0.6970
 3155SOL    HW2 9522   2.650   0.005   0.887 -0.3075 -0.8253  0.8047
 3156SOL     OW 9523   1.109   1.556   3.282 -0.1428  0.2465  0.1285
 3156SOL    HW1 9524   1.047   1.512   3.340  1.5685 -2.5121  0.0420
 3156SOL    HW2 9525   1.056   1.620   3.234 -2.5753 -0.8906  1.1338
 3157SOL     OW 9526   4.652   4.948   2.082  0.0171 -0.6554  0.4254
 3157SOL    HW1 9527   4.567   4.906   2.094 -0.4980  0.6014  1.3936
 3157SOL    HW2 9528   4.699   4.931   2.164  0.4354 -0.7252  0.1747
 3158SOL     OW 9529   1.428   0.457   4.041  0.1607 -0.0192 -0.1251
 3158SOL    HW1 9530   1.502   0.516   4.027 -0.2746  0.5073 -0.2757
 3158SOL    HW2 9531   1.402   0.472   4.132 -0.1576  0.2772 -0.2599
 3159SOL     OW 9532   1.150   1.944   2.643  0.3531 -0.0381  0.1365
 3159SOL    HW1 9533   1.195   1.904   2.569  0.7556  0.6267  0.0115
 3159SOL    HW2 9534   1.066   1.897   2.648  0.5120 -0.4017 -0.4480
 3160SOL     OW 9535   3.667   1.702   3.388 -0.9321  0.6572  0.0511
 3160SOL    HW1 9536   3.759   1.689   3.408 -1.1486 -1.7562 -0.2862
 3160SOL    HW2 9537   3.665   1.783   3.336  1.1334  0.1286 -0.9292
 3161SOL     OW 9538   4.613   2.391   3.530 -0.0056 -0.5302 -0.8858
 3161SOL    HW1 9539   4.552   2.317   3.539 -0.0103 -0.3041  1.5269
 3161SOL    HW2 9540   4.698   2.354   3.554  0.1859 -0.0338 -0.8008
 3162SOL     OW 9541   2.698   1.809   4.102  0.3225 -0.5524  0.0603
 3162SOL    HW1 9542   2.639   1.799   4.177  1.5432 -1.5447  0.9160
 3162SOL    HW2 9543   2.671   1.739   4.042 -0.8186  0.3959 -0.5797
 3163SOL     OW 9544   2.937   2.671   0.971 -0.4767  0.0564  0.1015
 3163SOL    HW1 9545   2.874   2.740   0.950 -1.0029  0.1494  1.8111
 3163SOL    HW2 9546   2.925   2.606   0.902 -1.4035  0.7560 -0.4159
 3164SOL     OW 9547   4.484   4.475   1.254  0.4729 -0.7795  0.7098
 3164SOL    HW1 9548   4.549   4.427   1.306  1.1961  0.5424  1.0806
 3164SOL    HW2 9549   4.453   4.544   1.313  1.0324  0.5252 -0.4492
 3165SOL     OW 9550   2.592   1.178   0.720  0.1714 -0.1534  0.3374
 3165SOL    HW1 9551   2.662   1.200   0.659 -0.2034 -1.0743 -0.4583
 3165SOL    HW2 9552   2.525   1.136   0.666 -0.2981 -0.7345  1.3305
 3166SOL     OW 9553   3.771   1.379   4.616 -0.2878 -0.8522 -0.1257
 3166SOL    HW1 9554   3.845   1.431   4.648  0.5000 -0.4585 -2.4359
 3166SOL    HW2 9555   3.758   1.312   4.684  1.6917 -0.4795  0.6925
 3167SOL     OW 9556   1.166   1.225   3.872 -0.3591 -0.3558  0.4034
 3167SOL    HW1 9557   1.104   1.171   3.922 -1.3319  0.6167  0.2994
 3167SOL    HW2 9558   1.226   1.259   3.939  0.0081 -1.2146  0.5243
 3168SOL     OW 9559   2.299   3.722   2.257 -0.4275  0.2588 -0.2815
 3168SOL    HW1 9560   2.334   3.793   2.310  0.9915  0.2426 -1.1358
 3168SOL    HW2 9561   2.348   3.645   2.285 -1.4136 -0.2483  0.0987
 3169SOL     OW 9562   1.354   3.977   0.467  0.0733  0.1224  0.5568
 3169SOL    HW1 9563   1.374   3.957   0.559 -0.7864  0.3312  0.8032
 3169SOL    HW2 9564   1.376   4.069   0.457 -0.5244  0.2918  0.7635
 3170SOL     OW 9565   2.461   2.508   1.844  0.8103  0.6005  0.2496
 3170SOL    HW1 9566   2.477   2.416   1.862  2.5487  0.7889 -0.1510
 3170SOL    HW2 9567   2.500   2.523   1.758 -2.8064  0.8764 -1.5304
 3171SOL     OW 9568   0.406   0.916   1.094  0.2507  0.2967 -0.1981
 3171SOL    HW1 9569   0.428   0.987   1.153  1.4292 -0.2787  0.0912
 3171SOL    HW2 9570   0.476   0.918   1.028 -0.5583  0.3762 -1.0695
 3172SOL     OW 9571   1.867   4.001   1.093 -0.3000  0.3533 -0.3688
 3172SOL    HW1 9572   1.917   3.945   1.033  1.7663 -0.7694  2.1991
 3172SOL    HW2 9573   1.778   3.966   1.089  0.0619 -0.5192 -1.7895
 3173SOL     OW 9574   2.275   0.208   3.574 -0.2314 -0.1178 -0.0895
 3173SOL    HW1 9575   2.369   0.192   3.579 -0.4595 -1.2964  0.5584
 3173SOL    HW2 9576   2.254   0.194   3.481  0.0400 -1.0029 -0.0276
 3174SOL     OW 9577   4.367   4.942   1.895 -0.4970 -0.0371 -0.5289
 3174SOL    HW1 9578   4.296   4.890   1.857 -1.1959 -1.3017  2.2970
 3174SOL    HW2 9579   4.346   5.032   1.872 -1.9089 -0.5546 -1.4144
 3175SOL     OW 9580   2.550   4.315   1.825 -0.0866 -0.4215 -0.3746
 3175SOL    HW1 9581   2.500   4.261   1.885  0.3399 -1.6949 -1.1329
 3175SOL    HW2 9582   2.606   4.254   1.778 -1.7949  0.2071 -3.4900
 3176SOL     OW 9583   0.062   2.046   2.910  0.0856  0.5961 -0.4435
 3176SOL    HW1 9584  -0.005   2.088   2.857  1.3149  1.4604 -1.3615
 3176SOL    HW2 9585   0.035   1.954   2.913 -2.2561  1.2248  1.0078
 3177SOL     OW 9586   3.931   2.128   1.628  0.1591 -0.0289 -0.0845
 3177SOL    HW1 9587   3.846   2.113   1.668  0.8577  0.2838  1.5855
 3177SOL    HW2 9588   3.967   2.040   1.614  0.7466 -0.1508  1.9186
 3178SOL     OW 9589   3.226   1.625   2.853  0.0562 -0.6309 -0.1699
 3178SOL    HW1 9590   3.168   1.603   2.927 -1.5076  1.0195 -0.8164
 3178SOL    HW2 9591   3.216   1.551   2.793 -0.0442 -1.1595  0.4755
 3179SOL     OW 9592   0.050   4.453   1.199  0.2378 -0.0801  0.1972
 3179SOL    HW1 9593   0.102   4.518   1.151  2.3218  1.1831  3.7982
 3179SOL    HW2 9594  -0.027   4.502   1.229  0.1135 -0.2106  0.0910
 3180SOL     OW 9595   4.670   3.181   1.509 -0.0808  0.1405  0.3560
 3180SOL    HW1 9596   4.670   3.231   1.590 -0.2983  0.9122 -0.1130
 3180SOL    HW2 9597   4.760   3.151   1.499  0.6401  2.4430 -0.5633
 3181SOL     OW 9598   0.048   4.569   0.098  0.2177 -0.4855 -0.1611
 3181SOL    HW1 9599   0.039   4.662   0.115  0.2411 -0.2239 -1.4877
 3181SOL    HW2 9600   0.014   4.527   0.177  0.2743  0.6335  0.4800
 3182SOL     OW 9601   1.781   0.293   3.041 -0.4272  0.3656  0.0782
 3182SOL    HW1 9602   1.761   0.335   3.125 -1.2374 -1.5129  0.8826
 3182SOL    HW2 9603   1.763   0.361   2.976 -0.8023  1.5384  1.3373
 3183SOL     OW 9604   2.520   4.381   2.451  0.0047  0.4264 -0.2108
 3183SOL    HW1 9605   2.426   4.377   2.471  0.2025  2.5554  1.5949
 3183SOL    HW2 9606   2.525   4.416   2.362 -0.8805 -2.8679 -1.6771
 3184SOL     OW 9607   1.162   3.044   1.839  0.0071  0.1728  0.5127
 3184SOL    HW1 9608   1.158   3.138   1.820 -0.4292  0.2194  0.8289
 3184SOL    HW2 9609   1.225   3.036   1.911  1.0311  0.0825 -0.3695
 3185SOL     OW 9610   1.199   4.464   1.321  0.0535  0.1516 -0.1252
 3185SOL    HW1 9611   1.189   4.555   1.293 -0.2805 -0.1947 -1.1954
 3185SOL    HW2 9612   1.113   4.426   1.306  0.5839 -0.7072 -1.1422
 3186SOL     OW 9613   2.460   2.222   3.053 -0.2440  0.3003  0.2760
 3186SOL    HW1 9614   2.515   2.168   3.109 -1.7559 -0.5128  1.0534
 3186SOL    HW2 9615   2.431   2.163   2.984 -2.1807 -0.0765  1.3181
 3187SOL     OW 9616   2.903   1.479   2.283  0.4262  0.1402  0.2865
 3187SOL    HW1 9617   2.896   1.411   2.216  0.8525  0.3701  0.0067
 3187SOL    HW2 9618   2.914   1.560   2.234 -0.9424  0.5368  0.5966
 3188SOL     OW 9619   2.048   2.067   4.051  0.1688 -0.2258  0.4141
 3188SOL    HW1 9620   2.071   2.043   3.961  1.3659 -0.1535  0.6921
 3188SOL    HW2 9621   2.006   1.989   4.087  1.4357 -0.9333  0.3948
 3189SOL     OW 9622   1.922   0.147   3.685 -0.3292 -0.1252  0.6518
 3189SOL    HW1 9623   1.983   0.074   3.673 -0.8536 -0.2943 -1.2044
 3189SOL    HW2 9624   1.935   0.174   3.776  0.6813 -1.7913  1.0386
 3190SOL     OW 9625   4.748   3.128   4.908 -0.3523 -0.1650 -0.4725
 3190SOL    HW1 9626   4.687   3.137   4.981  1.1532  2.3795  0.6331
 3190SOL    HW2 9627   4.705   3.174   4.836  0.2592  1.8804  0.3836
 3191SOL     OW 9628   0.064   1.208   2.050  0.0642  0.1683  0.1926
 3191SOL    HW1 9629   0.160   1.207   2.052  0.1734 -0.0267 -2.2291
 3191SOL    HW2 9630   0.042   1.296   2.019 -0.4981 -0.0108  0.0765
 3192SOL     OW 9631   1.416   0.800   1.011 -0.1389  0.1088 -0.0381
 3192SOL    HW1 9632   1.352   0.862   0.974  0.0471  0.1052 -0.3709
 3192SOL    HW2 9633   1.414   0.725   0.952  0.1082  0.0711 -0.0009
 3193SOL     OW 9634   1.014   0.931   0.164 -0.8768 -0.1174  0.4040
 3193SOL    HW1 9635   0.986   0.862   0.104 -1.5205 -0.4461  1.0719
 3193SOL    HW2 9636   0.934   0.980   0.182 -1.0016 -0.8983  2.1275
 3194SOL     OW 9637   0.101   4.011   4.978  0.2519  0.0891  1.1962
 3194SOL    HW1 9638   0.113   4.043   4.889 -3.4915 -1.2371  0.0112
 3194SOL    HW2 9639   0.175   3.952   4.993 -0.0295 -1.2199 -1.8774
 3195SOL     OW 9640   1.861   3.664   3.699 -0.3756 -0.4674 -0.5990
 3195SOL    HW1 9641   1.952   3.693   3.703 -1.3261  3.2379 -1.6439
 3195SOL    HW2 9642   1.863   3.585   3.645  2.3761 -1.7328  1.1565
 3196SOL     OW 9643   4.503   1.432   1.836 -0.0283  0.3913 -0.5289
 3196SOL    HW1 9644   4.560   1.358   1.858  1.6519  1.1008 -2.2468
 3196SOL    HW2 9645   4.537   1.505   1.888 -0.2190  0.5064 -0.5632
 3197SOL     OW 9646   2.504   4.785   3.311 -0.2591  0.0359 -0.3223
 3197SOL    HW1 9647   2.516   4.704   3.261  1.1850  1.2455 -2.0322
 3197SOL    HW2 9648   2.466   4.847   3.249  4.3627  2.5135 -1.0935
 3198SOL     OW 9649   1.230   0.343   4.226 -0.3361  0.0228 -0.8524
 3198SOL    HW1 9650   1.269   0.358   4.140 -1.9009 -1.0673 -1.8134
 3198SOL    HW2 9651   1.151   0.292   4.208 -1.2498  0.6112  1.1517
 3199SOL     OW 9652   1.566   4.367   3.011  0.1606 -0.2655  0.3337
 3199SOL    HW1 9653   1.537   4.290   2.963  0.9831 -1.2283  1.3386
 3199SOL    HW2 9654   1.553   4.440   2.950 -1.0225 -1.1325 -0.4687
 3200SOL     OW 9655   0.949   3.510   2.665  0.3330  0.2545  0.0856
 3200SOL    HW1 9656   0.987   3.537   2.581  1.3643  1.4144  0.8935
 3200SOL    HW2 9657   1.004   3.437   2.693 -0.4010 -0.5555 -0.5166
 3201SOL     OW 9658   2.593   3.155   2.561  0.4784 -0.1813  0.2054
 3201SOL    HW1 9659   2.600   3.159   2.466  0.8866  0.9875  0.2684
 3201SOL    HW2 9660   2.534   3.081   2.578 -0.4328  0.2373 -0.9909
 3202SOL     OW 9661   4.685   3.810   1.542 -0.3357  0.0805 -0.4764
 3202SOL    HW1 9662   4.645   3.732   1.504 -1.6588  0.2911  0.3765
 3202SOL    HW2 9663   4.779   3.795   1.537 -0.5611 -1.7683  0.0369
 3203SOL     OW 9664   0.283   4.943   2.264 -0.0604  0.0391 -0.3016
 3203SOL    HW1 9665   0.207   4.991   2.232  0.2421  0.7287 -0.0091
 3203SOL    HW2 9666   0.319   4.901   2.186  0.3108  1.1937 -0.7819
 3204SOL     OW 9667   1.135   0.261   3.506  0.1524 -0.5531  0.6380
 3204SOL    HW1 9668   1.055   0.310   3.522 -0.4646 -1.7363  1.2943
 3204SOL    HW2 9669   1.141   0.255   3.411  1.0483  2.0250  0.4520
 3205SOL     OW 9670   3.226   3.384   2.219 -0.0679 -0.4342 -0.2264
 3205SOL    HW1 9671   3.292   3.405   2.154  1.0172  1.1812  1.2887
 3205SOL    HW2 9672   3.273   3.337   2.288 -0.5767  0.2587  0.6301
 3206SOL     OW 9673   3.044   0.474   4.209 -0.0875  0.0734  0.8247
 3206SOL    HW1 9674   3.088   0.500   4.128 -0.2499 -1.3860  0.2339
 3206SOL    HW2 9675   3.099   0.406   4.246 -0.5368  0.0234  1.4196
 3207SOL     OW 9676   2.949   1.652   3.726 -0.4305  0.6339 -0.1987
 3207SOL    HW1 9677   2.864   1.650   3.770 -1.7636  1.2441 -2.5844
 3207SOL    HW2 9678   2.995   1.576   3.762 -1.9261  0.3525  1.2658
 3208SOL     OW 9679   3.381   2.158   0.561 -0.0340 -0.1685 -0.0623
 3208SOL    HW1 9680   3.462   2.169   0.510 -0.3782  2.6319 -0.1449
 3208SOL    HW2 9681   3.333   2.240   0.548 -2.7347 -1.6043  0.3207
 3209SOL     OW 9682   4.568   2.874   4.590  0.2883 -0.7715 -0.5968
 3209SOL    HW1 9683   4.505   2.927   4.639  0.3879 -1.2217  0.0304
 3209SOL    HW2 9684   4.653   2.902   4.623  0.4298 -0.0862 -1.5226
 3210SOL     OW 9685   1.760   1.107   2.963 -0.2325 -0.1796  0.0522
 3210SOL    HW1 9686   1.696   1.122   2.893  1.9925  2.0128 -1.6968
 3210SOL    HW2 9687   1.839   1.152   2.933  0.9759  0.5839  3.8621
 3211SOL     OW 9688   1.774   0.325   1.066  0.3111  0.2845  0.4926
 3211SOL    HW1 9689   1.767   0.232   1.044 -2.6967  0.6374 -0.4132
 3211SOL    HW2 9690   1.783   0.370   0.982 -2.2433  1.0127  0.5236
 3212SOL     OW 9691   2.864   3.563   3.752 -0.1741 -0.1181 -0.0921
 3212SOL    HW1 9692   2.818   3.492   3.797  1.7819 -1.0519  0.5420
 3212SOL    HW2 9693   2.871   3.533   3.661 -0.4421 -0.1840 -0.0908
 3213SOL     OW 9694   0.890   4.068   3.003 -0.1781  0.7211  0.3072
 3213SOL    HW1 9695   0.910   4.003   3.071 -2.3615  0.4291  0.7493
 3213SOL    HW2 9696   0.824   4.025   2.948 -2.1243  2.7131  0.9360
 3214SOL     OW 9697   4.451   0.131   3.522  0.1278  0.1314 -0.0348
 3214SOL    HW1 9698   4.539   0.154   3.552 -0.0586  1.7730 -0.6317
 3214SOL    HW2 9699   4.421   0.066   3.585  1.7297 -0.4298  0.2191
 3215SOL     OW 9700   2.156   2.033   4.715 -0.2507  0.4816  0.0433
 3215SOL    HW1 9701   2.177   2.046   4.807  2.6624  0.6407 -0.5682
 3215SOL    HW2 9702   2.120   2.117   4.686  2.8374  1.9361  0.0978
 3216SOL     OW 9703   1.005   1.468   3.861  0.2865  0.1667 -0.2439
 3216SOL    HW1 9704   1.062   1.503   3.792 -0.2201  1.5673  0.0010
 3216SOL    HW2 9705   1.026   1.375   3.866 -0.2830 -0.1902 -2.9257
 3217SOL     OW 9706   0.453   3.117   1.167 -0.3468  0.0629 -0.3798
 3217SOL    HW1 9707   0.474   3.064   1.244 -4.4997 -2.3983 -0.6527
 3217SOL    HW2 9708   0.484   3.064   1.093 -2.4518 -1.0161 -0.5565
 3218SOL     OW 9709   1.607   2.533   1.286  0.0900  0.4979 -0.1338
 3218SOL    HW1 9710   1.634   2.575   1.368  0.4208  1.7901 -0.8694
 3218SOL    HW2 9711   1.518   2.503   1.303  1.0373 -1.6533  1.5357
 3219SOL     OW 9712   0.051   1.997   1.026 -0.6105 -0.0620 -0.0019
 3219SOL    HW1 9713   0.005   1.934   0.970  0.2155 -2.2400  1.6288
 3219SOL    HW2 9714  -0.017   2.058   1.054 -1.6255 -0.7018 -0.9723
 3220SOL     OW 9715   2.276   3.724   0.497  0.5605  0.6053  0.3849
 3220SOL    HW1 9716   2.344   3.657   0.500  0.8377  0.8892  0.6849
 3220SOL    HW2 9717   2.311   3.791   0.438 -1.2092 -1.0625 -2.7579
 3221SOL     OW 9718   0.605   0.145   1.485  0.0032  0.2097  0.5914
 3221SOL    HW1 9719   0.570   0.064   1.449  0.5871 -0.7039  1.9715
 3221SOL    HW2 9720   0.540   0.211   1.464 -0.0581 -0.4173 -1.3582
 3222SOL     OW 9721   3.881   1.592   3.998 -0.1699 -0.1055  0.1009
 3222SOL    HW1 9722   3.864   1.507   4.039  0.6138 -1.1115 -1.5479
 3222SOL    HW2 9723   3.811   1.649   4.030 -0.8761 -1.4450  1.0304
 3223SOL     OW 9724   3.244   2.399   1.287  0.3373 -0.0825 -0.5453
 3223SOL    HW1 9725   3.288   2.466   1.340 -1.5115 -0.6897  1.9015
 3223SOL    HW2 9726   3.190   2.449   1.226 -1.4838  0.7926  1.6433
 3224SOL     OW 9727   1.749   1.323   4.133 -0.2707 -0.3520  0.3873
 3224SOL    HW1 9728   1.679   1.321   4.198  0.5007  3.5382  1.5865
 3224SOL    HW2 9729   1.723   1.391   4.071  1.8795  0.3705  0.1999
 3225SOL     OW 9730   2.038   3.096   1.276  0.0419 -0.2279 -0.5641
 3225SOL    HW1 9731   2.095   3.122   1.348  0.6987 -0.1145 -1.1078
 3225SOL    HW2 9732   1.950   3.116   1.306  0.3849  0.7507 -0.1904
 3226SOL     OW 9733   2.169   0.795   0.293  0.1377 -0.4247 -0.4059
 3226SOL    HW1 9734   2.195   0.867   0.235  1.0650 -0.8663 -0.5595
 3226SOL    HW2 9735   2.153   0.721   0.235  1.0680 -0.8682 -0.1276
 3227SOL     OW 9736   4.651   0.089   2.477  0.0854 -0.3897  0.3707
 3227SOL    HW1 9737   4.655   0.184   2.484  3.2272 -0.4892  1.6628
 3227SOL    HW2 9738   4.702   0.068   2.399 -0.9447 -1.0475 -0.1555
 3228SOL     OW 9739   4.553   2.261   0.242  0.6203  0.2548  0.0733
 3228SOL    HW1 9740   4.631   2.292   0.289 -1.5753  1.8237  3.0191
 3228SOL    HW2 9741   4.517   2.339   0.201  0.4340 -0.4221 -1.1049
 3229SOL     OW 9742   1.608   4.670   3.374 -0.0472  0.0860  0.1078
 3229SOL    HW1 9743   1.628   4.658   3.467  0.8444  0.8350  0.0313
 3229SOL    HW2 9744   1.674   4.732   3.344 -0.3824 -0.0882 -1.0115
 3230SOL     OW 9745   2.637   3.399   4.521  0.1125 -0.3608 -0.3645
 3230SOL    HW1 9746   2.569   3.333   4.508 -2.0381  1.5122  0.6246
 3230SOL    HW2 9747   2.624   3.461   4.449 -0.1047  0.6856  0.5524
 3231SOL     OW 9748   1.063   4.593   2.185 -0.7009 -0.1517  0.3688
 3231SOL    HW1 9749   0.989   4.652   2.170 -0.9267 -0.8264 -1.4006
 3231SOL    HW2 9750   1.137   4.637   2.143 -0.5907 -0.5230  0.1758
 3232SOL     OW 9751   2.968   2.534   4.340 -0.3085 -0.7939 -0.5416
 3232SOL    HW1 9752   2.947   2.453   4.293 -1.6028 -1.6684  1.3957
 3232SOL    HW2 9753   2.996   2.504   4.427 -1.5082  0.8519  0.4716
 3233SOL     OW 9754   1.469   1.006   1.230  1.0046 -0.3099 -0.7883
 3233SOL    HW1 9755   1.541   1.069   1.226 -0.4535  1.4703 -0.0526
 3233SOL    HW2 9756   1.458   0.977   1.139  1.9680  0.1596 -1.0675
 3234SOL     OW 9757   4.066   3.514   2.567 -0.0555  0.2275  0.8894
 3234SOL    HW1 9758   3.992   3.501   2.508  0.8181  0.8209 -0.3763
 3234SOL    HW2 9759   4.134   3.551   2.512  1.8196 -1.9337  1.6023
 3235SOL     OW 9760   0.588   1.221   2.145  0.2026  0.2053  0.0378
 3235SOL    HW1 9761   0.578   1.298   2.089  0.7592  0.5139  0.3485
 3235SOL    HW2 9762   0.648   1.250   2.214  0.1022 -0.3904  0.3794
 3236SOL     OW 9763   0.674   2.009   1.397 -0.0894 -0.8554 -0.6199
 3236SOL    HW1 9764   0.629   2.057   1.467  0.5112  0.2485 -0.9712
 3236SOL    HW2 9765   0.610   1.944   1.368 -0.8306 -0.4464  0.0534
 3237SOL     OW 9766   4.608   0.720   0.752  0.0479 -0.7515  0.2465
 3237SOL    HW1 9767   4.690   0.768   0.742  0.3868 -0.9761  1.7264
 3237SOL    HW2 9768   4.633   0.628   0.751 -0.5259 -0.9327 -1.9119
 3238SOL     OW 9769   1.489   0.063   1.048 -0.2496  0.6108 -0.1097
 3238SOL    HW1 9770   1.481   0.066   0.952 -0.4288  0.7967 -0.0867
 3238SOL    HW2 9771   1.495   0.154   1.075 -0.2481  0.5601  0.0630
 3239SOL     OW 9772   1.904   1.549   4.322 -0.0010 -0.4813  0.6103
 3239SOL    HW1 9773   1.911   1.605   4.399  1.9348 -0.9792  0.8581
 3239SOL    HW2 9774   1.812   1.524   4.318 -0.3800  0.5819  2.0129
 3240SOL     OW 9775   3.521   0.319   1.941 -0.0754  0.1655 -0.1189
 3240SOL    HW1 9776   3.542   0.255   1.874 -1.5863 -0.2485 -0.2302
 3240SOL    HW2 9777   3.436   0.292   1.975 -0.4072  1.6922  0.3550
 3241SOL     OW 9778   4.983   3.637   4.168 -0.3971 -0.4590 -0.1741
 3241SOL    HW1 9779   4.937   3.710   4.126  0.8868  0.2960 -0.3237
 3241SOL    HW2 9780   4.975   3.655   4.262  0.6203  0.3498 -0.2255
 3242SOL     OW 9781   4.768   3.196   3.487 -0.6838 -0.1409 -0.1050
 3242SOL    HW1 9782   4.776   3.109   3.526 -1.5106 -0.8554 -1.4322
 3242SOL    HW2 9783   4.846   3.243   3.515 -0.9841 -0.7826  1.9167
 3243SOL     OW 9784   4.493   0.372   3.407 -0.3252 -0.3732 -0.1633
 3243SOL    HW1 9785   4.476   0.281   3.430 -1.0792  0.0363  0.9943
 3243SOL    HW2 9786   4.440   0.423   3.469  1.4412  0.8844  0.3774
 3244SOL     OW 9787   0.861   1.976   2.887  0.4012 -0.0747 -0.0062
 3244SOL    HW1 9788   0.943   1.950   2.926  0.7610 -0.4370 -0.9689
 3244SOL    HW2 9789   0.853   1.922   2.808 -0.4955  0.3285 -0.2133
 3245SOL     OW 9790   1.906   4.167   0.135 -0.1334  0.2603 -0.5502
 3245SOL    HW1 9791   1.892   4.203   0.222  2.9961 -1.4098  0.8351
 3245SOL    HW2 9792   1.996   4.191   0.113  0.3521 -2.2302 -1.7309
 3246SOL     OW 9793   4.681   1.009   3.694 -0.2815  0.6229 -0.1470
 3246SOL    HW1 9794   4.691   0.927   3.742 -0.2957  0.5814 -0.2140
 3246SOL    HW2 9795   4.641   0.983   3.611 -0.5833  0.7359 -0.0394
 3247SOL     OW 9796   1.902   4.967   1.344  0.2677  0.1210 -0.8367
 3247SOL    HW1 9797   1.837   4.915   1.296 -0.6655  1.0260 -0.5843
 3247SOL    HW2 9798   1.958   4.902   1.387 -1.7639 -0.7221  0.6981
 3248SOL     OW 9799   2.614   2.485   4.052  0.1785  0.4370 -0.4803
 3248SOL    HW1 9800   2.640   2.409   4.104  0.2198  0.4105 -0.5397
 3248SOL    HW2 9801   2.583   2.448   3.969 -0.8026  0.4116 -0.1123
 3249SOL     OW 9802   4.610   2.224   4.910 -0.1660 -0.3337 -0.7135
 3249SOL    HW1 9803   4.672   2.296   4.910 -0.5581  0.0405  0.7339
 3249SOL    HW2 9804   4.597   2.203   5.003 -0.1114 -2.2253 -1.0834
 3250SOL     OW 9805   3.791   4.965   1.481  0.1919 -0.1967 -0.1253
 3250SOL    HW1 9806   3.763   4.874   1.472 -3.8003  0.9253 -1.2383
 3250SOL    HW2 9807   3.780   5.002   1.393 -0.1099  1.7341  0.6614
 3251SOL     OW 9808   0.551   0.420   2.476  0.4134  0.3900 -0.2408
 3251SOL    HW1 9809   0.538   0.515   2.469 -2.2012  0.2155  1.0074
 3251SOL    HW2 9810   0.464   0.383   2.462  1.4527 -1.9107 -1.1760
 3252SOL     OW 9811   3.818   3.525   3.468  0.4790  0.4116 -0.3522
 3252SOL    HW1 9812   3.821   3.430   3.474  0.4955  0.3175 -1.5392
 3252SOL    HW2 9813   3.893   3.555   3.519  1.4931 -0.3085 -1.3754
 3253SOL     OW 9814   1.013   3.810   1.446 -0.0674 -0.1523 -0.0123
 3253SOL    HW1 9815   1.081   3.829   1.381 -0.7505 -1.2179 -1.0879
 3253SOL    HW2 9816   1.055   3.750   1.507  0.6127  0.9368  0.6095
 3254SOL     OW 9817   4.256   0.142   4.591 -0.5286  0.6133  0.2195
 3254SOL    HW1 9818   4.298   0.059   4.568 -1.7344  0.1769 -0.4959
 3254SOL    HW2 9819   4.328   0.205   4.595  0.2493 -0.1960 -0.5499
 3255SOL     OW 9820   4.099   0.541   4.843  0.2247 -0.0631  0.3780
 3255SOL    HW1 9821   4.186   0.563   4.812 -0.9563  1.9488 -1.8402
 3255SOL    HW2 9822   4.095   0.445   4.838  1.7086 -0.0814 -1.2825
 3256SOL     OW 9823   1.954   4.440   2.383 -0.3841 -0.5034  0.4354
 3256SOL    HW1 9824   1.978   4.469   2.471 -1.9290  0.9817  0.4238
 3256SOL    HW2 9825   1.979   4.512   2.326  2.1983 -2.1283 -0.6819
 3257SOL     OW 9826   0.656   2.610   4.903 -0.2685  0.0960  0.4487
 3257SOL    HW1 9827   0.653   2.597   4.808  0.5023 -2.1155  0.6673
 3257SOL    HW2 9828   0.574   2.574   4.935 -1.1671  2.1033  0.5663
 3258SOL     OW 9829   3.706   0.781   1.308 -0.4232 -0.7199 -0.0357
 3258SOL    HW1 9830   3.690   0.862   1.356 -1.5300 -0.1863 -1.2215
 3258SOL    HW2 9831   3.676   0.712   1.366  3.5685 -0.6811  2.4077
 3259SOL     OW 9832   1.368   3.837   4.849 -0.2428 -0.1033  0.4534
 3259SOL    HW1 9833   1.336   3.753   4.883  0.0768 -0.9812 -1.3262
 3259SOL    HW2 9834   1.306   3.901   4.882  0.6380 -0.6895  3.6166
 3260SOL     OW 9835   4.388   1.989   1.185  0.8658  0.2051  0.4149
 3260SOL    HW1 9836   4.333   2.051   1.234  0.6125 -0.1974  0.6528
 3260SOL    HW2 9837   4.407   2.033   1.103  0.0524  0.2906  0.2663
 3261SOL     OW 9838   1.757   0.186   0.674 -0.8162 -0.0122 -0.9109
 3261SOL    HW1 9839   1.836   0.135   0.658 -1.3391 -1.0108 -0.4092
 3261SOL    HW2 9840   1.754   0.249   0.602  0.7243  0.4239 -0.6183
 3262SOL     OW 9841   4.181   0.050   0.995 -0.2180 -0.0385 -0.1659
 3262SOL    HW1 9842   4.259  -0.001   0.976  1.1715  2.0044 -0.2552
 3262SOL    HW2 9843   4.108  -0.011   0.980  1.3306 -2.8449  2.5197
 3263SOL     OW 9844   3.882   3.259   2.904 -0.1018  0.2518  0.1609
 3263SOL    HW1 9845   3.895   3.170   2.937  0.2077  0.2157 -0.0573
 3263SOL    HW2 9846   3.934   3.263   2.824  1.7642  1.3382  1.3493
 3264SOL     OW 9847   0.234   0.736   0.938  0.4687  0.0616  0.1917
 3264SOL    HW1 9848   0.283   0.723   0.857  0.3396  1.1365 -0.0848
 3264SOL    HW2 9849   0.275   0.812   0.979 -1.0887  1.1858 -0.1960
 3265SOL     OW 9850   4.356   0.743   3.322 -0.4701  0.7798 -0.4635
 3265SOL    HW1 9851   4.322   0.765   3.236  0.4717  0.0659 -1.0417
 3265SOL    HW2 9852   4.345   0.648   3.328 -0.7262  0.8526  0.2932
 3266SOL     OW 9853   3.611   1.426   1.320 -0.8474 -0.1880  0.2423
 3266SOL    HW1 9854   3.534   1.417   1.377 -1.1716 -1.7074 -0.3850
 3266SOL    HW2 9855   3.596   1.363   1.250  0.7870 -0.2232 -0.1099
 3267SOL     OW 9856   0.905   4.882   1.271  1.0617 -0.0950  0.2591
 3267SOL    HW1 9857   0.845   4.825   1.321  0.7309  0.0682  0.0523
 3267SOL    HW2 9858   0.903   4.966   1.319 -0.1200  0.4162 -0.6394
 3268SOL     OW 9859   0.655   1.794   3.071  0.5917 -0.0683 -0.1474
 3268SOL    HW1 9860   0.598   1.758   3.003  3.7138  0.1883 -3.1901
 3268SOL    HW2 9861   0.650   1.889   3.058 -1.6755  0.3214  2.6926
 3269SOL     OW 9862   1.532   3.008   1.603  0.3550  0.0673  0.2135
 3269SOL    HW1 9863   1.601   2.990   1.539  1.2795 -1.7517  1.6339
 3269SOL    HW2 9864   1.572   2.989   1.688 -2.1244 -2.0820  1.0505
 3270SOL     OW 9865   1.907   2.823   1.711 -0.2194 -0.0299 -0.1027
 3270SOL    HW1 9866   1.982   2.789   1.760 -1.3800  0.0492  1.7907
 3270SOL    HW2 9867   1.911   2.918   1.723 -1.2279 -0.1028  0.9656
 3271SOL     OW 9868   3.574   4.940   3.427  0.1726 -0.1518 -0.1041
 3271SOL    HW1 9869   3.574   5.031   3.398  0.6695  0.2146  1.0219
 3271SOL    HW2 9870   3.642   4.898   3.374 -0.3987 -0.0148 -0.9866
 3272SOL     OW 9871   4.398   3.913   0.406  0.2232  0.8570 -0.4160
 3272SOL    HW1 9872   4.388   3.997   0.360 -0.2761  1.1083  0.1385
 3272SOL    HW2 9873   4.308   3.885   0.423  0.4017  0.8831  0.6126
 3273SOL     OW 9874   0.713   3.994   1.849 -0.4102 -0.3283 -0.3105
 3273SOL    HW1 9875   0.655   4.048   1.902  0.4972 -0.8517  1.2955
 3273SOL    HW2 9876   0.800   4.008   1.886  0.3842 -0.2238 -2.1092
 3274SOL     OW 9877   0.485   0.534   3.316 -0.1773 -0.7136 -0.0746
 3274SOL    HW1 9878   0.470   0.474   3.389 -0.1886  0.3694  0.8586
 3274SOL    HW2 9879   0.537   0.605   3.355  0.0980 -0.2710 -1.2099
 3275SOL     OW 9880   3.682   4.347   1.896 -0.3076  0.4157 -0.0325
 3275SOL    HW1 9881   3.753   4.286   1.914 -0.9717 -0.4426 -0.2755
 3275SOL    HW2 9882   3.605   4.292   1.883 -1.3965  1.3607  1.8591
 3276SOL     OW 9883   1.002   3.425   4.341  0.1841 -0.5368 -0.1815
 3276SOL    HW1 9884   1.034   3.335   4.347  3.6519  0.5269 -0.5774
 3276SOL    HW2 9885   1.010   3.460   4.429 -2.8706 -0.9906  0.3960
 3277SOL     OW 9886   0.474   4.710   4.110 -0.6936  0.0028 -0.4226
 3277SOL    HW1 9887   0.487   4.641   4.045 -2.3953 -2.6222  1.7983
 3277SOL    HW2 9888   0.562   4.728   4.143  0.1577  1.1343 -3.0321
 3278SOL     OW 9889  -0.011   2.112   0.440 -0.4155 -0.1513 -0.2387
 3278SOL    HW1 9890   0.062   2.066   0.397 -1.2844 -0.9226 -0.9388
 3278SOL    HW2 9891   0.028   2.192   0.474  0.8888 -0.8263 -0.0822
 3279SOL     OW 9892   4.936   0.738   0.991 -0.2924 -0.0573  0.3130
 3279SOL    HW1 9893   5.032   0.739   0.992 -0.1393  2.6072 -2.6444
 3279SOL    HW2 9894   4.911   0.829   1.005 -2.2887 -0.2730 -1.4103
 3280SOL     OW 9895   4.633   0.262   2.050  0.6241 -0.0863 -0.0358
 3280SOL    HW1 9896   4.622   0.261   1.954 -0.6139 -1.4214  0.0891
 3280SOL    HW2 9897   4.663   0.174   2.072  2.9061  0.7876  0.6512
 3281SOL     OW 9898   0.577   1.708   0.489  1.0396 -0.1780  0.2875
 3281SOL    HW1 9899   0.521   1.644   0.446  2.5646 -1.6579  0.3733
 3281SOL    HW2 9900   0.548   1.793   0.456  0.6149 -1.0992 -1.8290
 3282SOL     OW 9901   2.372   3.819   3.197 -0.2288 -0.2064 -0.3291
 3282SOL    HW1 9902   2.433   3.865   3.255 -0.7215 -0.7701  0.6440
 3282SOL    HW2 9903   2.427   3.760   3.146  0.7039  2.5400 -2.8484
 3283SOL     OW 9904   3.686   1.071   4.192  0.3442  0.3248  0.7511
 3283SOL    HW1 9905   3.728   1.096   4.109  0.5347 -1.4543  0.2637
 3283SOL    HW2 9906   3.723   1.131   4.256  2.4714 -0.1364  0.0543
 3284SOL     OW 9907   4.554   2.956   2.351  0.7490  0.0060  0.3083
 3284SOL    HW1 9908   4.530   2.894   2.420 -0.7627  1.6130  1.3286
 3284SOL    HW2 9909   4.470   2.982   2.312  1.3481  1.2438 -0.2153
 3285SOL     OW 9910   2.537   4.019   0.855  0.8110  0.1608  0.0040
 3285SOL    HW1 9911   2.577   4.053   0.935 -0.0719 -0.3058  0.6666
 3285SOL    HW2 9912   2.475   4.086   0.828 -0.3256 -0.5041  0.8453
 3286SOL     OW 9913   0.445   1.574   0.296 -0.6255  0.3197  0.4889
 3286SOL    HW1 9914   0.360   1.603   0.265 -1.0635 -2.4195 -1.2759
 3286SOL    HW2 9915   0.437   1.479   0.304  2.5893 -0.2502 -1.0894
 3287SOL     OW 9916   3.597   0.891   0.611  0.0637  0.4130  0.1738
 3287SOL    HW1 9917   3.692   0.882   0.614 -0.0668 -4.2021 -1.9488
 3287SOL    HW2 9918   3.564   0.819   0.665 -2.3106  2.0978  1.1403
 3288SOL     OW 9919   4.640   3.709   3.170 -0.1000 -0.0037  0.0437
 3288SOL    HW1 9920   4.722   3.706   3.121  0.5910  1.7619  1.0044
 3288SOL    HW2 9921   4.572   3.703   3.102  0.8275  0.7947 -0.9982
 3289SOL     OW 9922   0.223   2.936   1.606 -0.1842  0.2090  0.1015
 3289SOL    HW1 9923   0.303   2.894   1.636  0.1936 -0.2754 -1.4778
 3289SOL    HW2 9924   0.166   2.937   1.682  1.1375  0.1389  1.1365
 3290SOL     OW 9925   0.379   4.921  -0.024 -0.4541  0.3670  0.5361
 3290SOL    HW1 9926   0.307   4.904   0.037  1.1329 -0.4791  2.2581
 3290SOL    HW2 9927   0.457   4.929   0.031  0.7575  1.6711 -1.2262
 3291SOL     OW 9928   1.261   1.070   1.713 -0.3339  0.1405 -0.1660
 3291SOL    HW1 9929   1.192   1.119   1.667 -0.9902  0.6271  1.2562
 3291SOL    HW2 9930   1.342   1.115   1.690 -0.6051  0.1393 -1.1324
 3292SOL     OW 9931   0.951   2.271   3.137 -0.0475  0.8230 -0.3702
 3292SOL    HW1 9932   0.888   2.262   3.208 -0.6003 -0.3917 -0.9906
 3292SOL    HW2 9933   0.944   2.363   3.110 -0.4677  1.0661  0.5516
 3293SOL     OW 9934   3.639   0.358   1.147 -0.2771  0.4485  0.2199
 3293SOL    HW1 9935   3.603   0.316   1.069  1.0598  0.0019 -0.1811
 3293SOL    HW2 9936   3.697   0.293   1.185  0.7789  1.4303  0.3538
 3294SOL     OW 9937   2.391   4.265   2.196  0.4155 -0.2878  0.1159
 3294SOL    HW1 9938   2.340   4.204   2.249 -0.5983  0.4853  0.0645
 3294SOL    HW2 9939   2.329   4.335   2.173  0.9638 -0.3275 -1.6429
 3295SOL     OW 9940   3.550   0.294   4.939 -0.0165 -0.3186 -0.3543
 3295SOL    HW1 9941   3.603   0.338   5.005  1.5674 -3.0661  0.4036
 3295SOL    HW2 9942   3.460   0.313   4.963  0.5534  1.1960  0.7749
 3296SOL     OW 9943   4.072   4.802   0.315 -0.0954 -0.0327  0.5910
 3296SOL    HW1 9944   4.016   4.805   0.236 -0.3578 -0.1948  0.7700
 3296SOL    HW2 9945   4.111   4.715   0.313 -0.3497 -0.1516  0.8104
 3297SOL     OW 9946   1.588   4.754   0.438  0.0268 -0.0348  0.1934
 3297SOL    HW1 9947   1.659   4.728   0.380 -0.6317 -0.8183 -0.2770
 3297SOL    HW2 9948   1.632   4.796   0.512  0.9266  0.2118 -0.4578
 3298SOL     OW 9949   3.673   2.325   1.782  0.4314  0.0160  0.7247
 3298SOL    HW1 9950   3.642   2.252   1.729 -1.0815  0.2554  1.2516
 3298SOL    HW2 9951   3.638   2.308   1.869 -0.5570  1.7292  0.6938
 3299SOL     OW 9952   4.378   0.065   2.957  0.6568 -0.1433  0.5649
 3299SOL    HW1 9953   4.464   0.097   2.984  0.4493  0.7275  0.2202
 3299SOL    HW2 9954   4.362   0.106   2.872 -1.5381  2.4479  2.0836
 3300SOL     OW 9955   4.894   4.192   1.956 -0.6480 -0.0583  0.3313
 3300SOL    HW1 9956   4.913   4.175   1.864 -0.9869  1.3700 -0.0222
 3300SOL    HW2 9957   4.954   4.134   2.004  1.1522  0.7973 -0.7848
 3301SOL     OW 9958   0.478   2.383   2.335 -0.3847 -0.5191 -0.1471
 3301SOL    HW1 9959   0.533   2.361   2.260  0.8041  0.2892  0.4449
 3301SOL    HW2 9960   0.487   2.308   2.394  0.7755 -0.0489  0.3029
 3302SOL     OW 9961   0.978   2.245   1.664 -0.6810  1.0089  0.5534
 3302SOL    HW1 9962   0.932   2.326   1.648 -0.8269  0.8394  0.0916
 3302SOL    HW2 9963   0.916   2.176   1.639  0.1584  0.7949 -1.0823
 3303SOL     OW 9964   3.130   0.183   1.725 -0.4154  0.0692 -0.0379
 3303SOL    HW1 9965   3.223   0.203   1.712 -0.0931 -1.9618 -1.4404
 3303SOL    HW2 9966   3.129   0.091   1.754 -2.0114 -0.8305 -2.5257
 3304SOL     OW 9967   0.248   4.620   2.207 -0.0796  0.5180 -0.1857
 3304SOL    HW1 9968   0.264   4.702   2.254  0.8833  0.5382 -0.5192
 3304SOL    HW2 9969   0.179   4.641   2.144 -0.5250  0.8070  0.3871
 3305SOL     OW 9970   1.126   0.590   4.111  0.3021  0.3719 -0.1327
 3305SOL    HW1 9971   1.037   0.558   4.128  0.3299  0.3531 -0.0201
 3305SOL    HW2 9972   1.134   0.668   4.166 -0.3342  1.5314 -1.5989
 3306SOL     OW 9973   3.571   3.664   2.715 -0.4500  0.5972  0.3426
 3306SOL    HW1 9974   3.555   3.698   2.803 -0.4247  0.1485  0.5238
 3306SOL    HW2 9975   3.661   3.690   2.695 -0.8181  1.6390  0.0113
 3307SOL     OW 9976   2.190   2.041   0.020  0.8941 -0.0467 -0.0617
 3307SOL    HW1 9977   2.222   1.959   0.059 -1.3049 -0.3388  1.3089
 3307SOL    HW2 9978   2.216   2.109   0.081  0.0306 -0.1293  0.4070
 3308SOL     OW 9979   2.029   1.994   0.625 -0.9505  0.1146 -0.2756
 3308SOL    HW1 9980   2.031   1.916   0.681 -0.8534  0.6927  0.5491
 3308SOL    HW2 9981   2.081   1.970   0.549 -0.0851 -0.2863  0.4298
 3309SOL     OW 9982   0.544   0.315   4.353 -0.5303 -0.1909 -0.3140
 3309SOL    HW1 9983   0.612   0.253   4.380 -1.1549  0.1765  2.3570
 3309SOL    HW2 9984   0.467   0.261   4.335 -0.4053 -0.3558 -0.3588
 3310SOL     OW 9985   0.311   0.938   4.358 -0.4473 -0.7083  0.3904
 3310SOL    HW1 9986   0.284   0.959   4.447 -2.0256  0.7845 -0.3720
 3310SOL    HW2 9987   0.375   0.867   4.368 -1.6609 -1.5933  2.6031
 3311SOL     OW 9988   0.860   0.506   1.795 -0.4297 -0.4189  0.0195
 3311SOL    HW1 9989   0.814   0.446   1.736 -0.1676 -0.1205 -0.4958
 3311SOL    HW2 9990   0.951   0.501   1.768 -0.3795  0.0869  0.0859
 3312SOL     OW 9991   4.015   1.161   1.155 -0.1552 -0.0159  0.1488
 3312SOL    HW1 9992   4.000   1.243   1.202  1.3953  0.4114 -0.0446
 3312SOL    HW2 9993   4.087   1.181   1.095  1.0104 -1.8069  0.8650
 3313SOL     OW 9994   4.767   1.791   1.254  0.2540  0.4245 -0.4281
 3313SOL    HW1 9995   4.688   1.747   1.224  0.9954  0.5857 -2.8513
 3313SOL    HW2 9996   4.766   1.781   1.349 -1.7393 -1.1284 -0.5531
 3314SOL     OW 9997   2.881   2.036   4.333  0.8783 -0.4403  0.3141
 3314SOL    HW1 9998   2.921   2.066   4.415 -0.3167  0.0786  0.7308
 3314SOL    HW2 9999   2.789   2.022   4.355  0.5341 -0.2978 -0.9472
 3315SOL     OW10000   3.077   3.611   1.027 -0.5843 -0.0325  0.0327
 3315SOL    HW110001   3.052   3.627   0.936 -2.5061  0.7928  0.6504
 3315SOL    HW210002   3.018   3.667   1.078  1.5065  0.7480  1.7390
 3316SOL     OW10003   4.805   1.971   4.127  0.0411  0.1481 -0.0419
 3316SOL    HW110004   4.867   1.906   4.094  0.4337  1.5671 -2.3094
 3316SOL    HW210005   4.720   1.926   4.126  0.7049 -1.2612  1.4585
 3317SOL     OW10006   0.758   0.090   4.103  0.0900 -0.4150  0.1151
 3317SOL    HW110007   0.809   0.106   4.024  0.8259 -1.7702  0.2799
 3317SOL    HW210008   0.673   0.130   4.085  0.2057 -0.7907 -1.4217
 3318SOL     OW10009   3.713   2.706   0.174  0.1037  0.0148  0.0052
 3318SOL    HW110010   3.757   2.789   0.155  0.1328  0.3717  1.5216
 3318SOL    HW210011   3.765   2.667   0.245  1.6430 -2.5818 -2.3150
 3319SOL     OW10012   2.988   4.866   4.672  0.5461  0.3999  0.5296
 3319SOL    HW110013   3.082   4.871   4.654  0.7529 -1.3127  1.0095
 3319SOL    HW210014   2.948   4.923   4.606  1.9075  1.2103  0.3565
 3320SOL     OW10015   0.313   1.673   1.652 -0.7383  0.6983 -0.4898
 3320SOL    HW110016   0.305   1.608   1.582 -0.6537 -1.3142  1.2549
 3320SOL    HW210017   0.231   1.721   1.650 -1.2443 -0.1686 -1.1726
 3321SOL     OW10018   4.736   0.534   0.056  0.4025  0.3556 -0.3947
 3321SOL    HW110019   4.775   0.579  -0.019  0.5383  0.9521  0.0272
 3321SOL    HW210020   4.785   0.452   0.064 -0.2065 -0.1380 -1.5096
 3322SOL     OW10021   3.892   3.682   1.727 -0.0306 -0.1203 -0.3301
 3322SOL    HW110022   3.969   3.625   1.719 -2.0902 -3.1744  0.0462
 3322SOL    HW210023   3.874   3.709   1.637  1.0158  0.0327 -0.5135
 3323SOL     OW10024   3.121   0.499   2.249 -0.0421  0.1358 -0.3771
 3323SOL    HW110025   3.192   0.457   2.298  1.5722  1.3555 -1.5533
 3323SOL    HW210026   3.155   0.505   2.159 -0.8625  2.4285 -0.5849
 3324SOL     OW10027   4.533   2.129   1.701  0.3095  0.7397 -0.8183
 3324SOL    HW110028   4.516   2.217   1.735  0.6245  1.0287 -1.3959
 3324SOL    HW210029   4.446   2.090   1.693  0.2429  0.5833  0.5149
 3325SOL     OW10030   0.542   2.020   1.045  0.5720  0.1724 -0.2328
 3325SOL    HW110031   0.452   1.991   1.030  0.7537 -0.5147 -0.0229
 3325SOL    HW210032   0.547   2.035   1.139  0.9758 -0.8437 -0.0829
 3326SOL     OW10033   4.087   3.293   1.398  0.3814 -0.3632  0.6331
 3326SOL    HW110034   4.148   3.358   1.431 -0.1112  0.2913  0.2848
 3326SOL    HW210035   4.032   3.341   1.335  0.0297 -1.1175  0.3479
 3327SOL     OW10036   0.236   2.963   2.808 -0.0814 -0.2322 -0.2021
 3327SOL    HW110037   0.280   2.964   2.893  0.4766 -1.0340 -0.4701
 3327SOL    HW210038   0.297   3.006   2.749 -0.0404 -0.5647 -0.4006
 3328SOL     OW10039   0.905   1.608   4.408  0.5699 -0.7506  0.0523
 3328SOL    HW110040   0.984   1.597   4.356  0.7920 -0.2448  0.2705
 3328SOL    HW210041   0.900   1.703   4.424 -1.0552 -0.5157 -1.4773
 3329SOL     OW10042   3.535   0.871   2.774  0.1483  0.0938  0.5014
 3329SOL    HW110043   3.569   0.954   2.742 -1.6908  0.6604 -0.1345
 3329SOL    HW210044   3.461   0.895   2.830 -0.1428 -1.0858  0.6613
 3330SOL     OW10045   4.434   1.293   1.419  0.6480 -0.3088  0.1629
 3330SOL    HW110046   4.430   1.237   1.496  1.2090  0.3380  0.6815
 3330SOL    HW210047   4.370   1.256   1.359  0.4578 -1.0379  0.7961
 3331SOL     OW10048   2.347   4.818   3.909 -0.2005 -0.2227 -0.1369
 3331SOL    HW110049   2.436   4.840   3.882  0.1181 -1.5192 -0.1974
 3331SOL    HW210050   2.336   4.726   3.884 -2.5228  0.5867 -2.7512
 3332SOL     OW10051   2.723   0.482   4.719 -0.1016 -0.2591 -0.3156
 3332SOL    HW110052   2.811   0.516   4.704 -0.2052  0.3061  0.3146
 3332SOL    HW210053   2.714   0.478   4.814 -1.7129  2.3264 -0.2597
 3333SOL     OW10054   3.890   2.061   4.921  0.0453 -0.5018 -0.2771
 3333SOL    HW110055   3.866   2.154   4.925 -0.2936 -0.6195  0.8348
 3333SOL    HW210056   3.965   2.054   4.980 -0.0370 -0.9582 -0.2270
 3334SOL     OW10057   4.337   2.215   4.968 -0.2324  0.2476  0.1096
 3334SOL    HW110058   4.283   2.292   4.952  0.9240  1.2590  0.9260
 3334SOL    HW210059   4.419   2.232   4.923  0.4189 -0.0157  1.1488
 3335SOL     OW10060   2.056   1.057   1.046  0.1041 -0.3713  0.4230
 3335SOL    HW110061   2.091   1.126   1.103 -1.0950 -0.0260  0.7547
 3335SOL    HW210062   2.134   1.008   1.019  0.7792 -0.1177  1.7863
 3336SOL     OW10063   3.666   2.481   1.177 -0.0281 -0.8495 -0.4983
 3336SOL    HW110064   3.611   2.516   1.248  1.4471 -0.3231  0.4507
 3336SOL    HW210065   3.705   2.559   1.137 -0.4200 -1.1803 -1.5636
 3337SOL     OW10066   2.962   2.943   3.459 -0.7687  0.0555 -0.0413
 3337SOL    HW110067   2.969   2.850   3.478 -1.4216 -0.0059 -0.0713
 3337SOL    HW210068   2.870   2.964   3.474 -0.9129  0.4076 -1.2878
 3338SOL     OW10069   3.116   1.391   3.739 -0.6308  0.1546  0.1976
 3338SOL    HW110070   3.102   1.406   3.646  0.6597  1.6020  0.1918
 3338SOL    HW210071   3.141   1.299   3.745  0.3295  0.3025 -1.0508
 3339SOL     OW10072   4.415   4.862   1.010  0.3379 -0.0672  0.2077
 3339SOL    HW110073   4.502   4.872   1.048 -0.0646 -2.0250  1.7892
 3339SOL    HW210074   4.417   4.777   0.965 -0.9005 -0.3961  0.7292
 3340SOL     OW10075   4.970   4.371   2.155 -0.1656 -0.5400  0.0097
 3340SOL    HW110076   4.899   4.342   2.097 -1.7635  0.8917  1.1507
 3340SOL    HW210077   4.971   4.467   2.147  0.8424 -0.4443  0.9238
 3341SOL     OW10078   3.920   0.913   4.610 -0.3030  0.5211 -0.4514
 3341SOL    HW110079   3.925   0.846   4.678 -0.9126  0.1334 -0.7737
 3341SOL    HW210080   3.869   0.872   4.540  0.9264  0.6593 -1.4533
 3342SOL     OW10081   3.726   4.652   2.213  0.5648 -0.0781 -0.1542
 3342SOL    HW110082   3.675   4.609   2.282 -0.0641  0.0077 -0.5480
 3342SOL    HW210083   3.817   4.638   2.237  0.3851  1.6160  1.7348
 3343SOL     OW10084   4.750   1.721   4.842 -0.2194  0.1933 -0.1272
 3343SOL    HW110085   4.790   1.779   4.907 -0.2798 -0.4097  0.4605
 3343SOL    HW210086   4.657   1.742   4.844 -0.2330  0.1182  0.0493
 3344SOL     OW10087   1.284   3.539   1.095 -0.1584 -0.2130  0.1159
 3344SOL    HW110088   1.335   3.620   1.092  0.5582 -0.4420  2.9572
 3344SOL    HW210089   1.193   3.568   1.088  0.1318  0.7114 -0.0088
 3345SOL     OW10090   3.823   4.791   2.554  0.6272  0.1516  0.3309
 3345SOL    HW110091   3.809   4.715   2.611  0.0685  0.4036  0.5398
 3345SOL    HW210092   3.877   4.757   2.482  0.5495 -0.3943  0.5198
 3346SOL     OW10093   2.960   3.813   1.186  0.4307  0.7764  0.4351
 3346SOL    HW110094   2.866   3.823   1.200  0.4489 -0.5749  1.8308
 3346SOL    HW210095   2.998   3.826   1.273  1.1725 -2.3204  0.6727
 3347SOL     OW10096   4.264   4.086   4.810  0.2862  0.1874 -0.3076
 3347SOL    HW110097   4.347   4.055   4.846  1.3712  0.8144 -2.1399
 3347SOL    HW210098   4.211   4.006   4.799  0.9446 -0.3184  0.1635
 3348SOL     OW10099   2.649   0.537   3.213 -0.2638  1.0438 -0.5627
 3348SOL    HW110100   2.631   0.501   3.300  0.3701 -0.0294 -0.8511
 3348SOL    HW210101   2.563   0.539   3.170 -0.5337  1.3040 -0.0245
 3349SOL     OW10102   2.046   3.970   2.714 -0.1671 -0.0111 -0.3735
 3349SOL    HW110103   2.049   4.057   2.674 -0.7732  0.4073  0.4723
 3349SOL    HW210104   2.097   3.915   2.654  2.6310  1.4638  0.4548
 3350SOL     OW10105   0.761   4.245   2.785 -0.5545  0.3241 -0.4282
 3350SOL    HW110106   0.742   4.151   2.779  1.4658 -0.1190 -0.7657
 3350SOL    HW210107   0.793   4.268   2.698  1.6015  0.6375  0.3797
 3351SOL     OW10108   1.868   0.892   0.918 -0.1447 -0.0009 -0.2323
 3351SOL    HW110109   1.783   0.877   0.960 -0.8046  1.2425 -1.0901
 3351SOL    HW210110   1.907   0.963   0.969 -0.1821  0.3055 -0.6309
 3352SOL     OW10111   2.900   2.514   1.434  0.2672  0.3619 -0.1654
 3352SOL    HW110112   2.891   2.419   1.434  0.6095  0.3201 -1.0012
 3352SOL    HW210113   2.965   2.532   1.366  1.4887  1.0934  1.1380
 3353SOL     OW10114   2.068   1.297   4.455 -0.4128  0.5767 -0.0379
 3353SOL    HW110115   2.045   1.382   4.494  1.1919  1.4274 -0.8823
 3353SOL    HW210116   2.125   1.318   4.381 -0.6003 -1.2088 -0.7451
 3354SOL     OW10117   1.033   0.658   1.347 -0.0127  0.2144  0.4552
 3354SOL    HW110118   1.033   0.727   1.414 -1.3459  1.5186 -0.8162
 3354SOL    HW210119   1.072   0.699   1.270 -1.6510 -0.1396 -0.6033
 3355SOL     OW10120   2.224   2.218   3.632  0.8325  0.1649  0.0998
 3355SOL    HW110121   2.142   2.229   3.585  0.8836 -1.1623 -0.3509
 3355SOL    HW210122   2.216   2.132   3.674  3.0135 -1.2964 -2.1851
 3356SOL     OW10123   3.572   2.107   1.145 -0.3171 -0.1210  0.5928
 3356SOL    HW110124   3.500   2.136   1.200 -0.1884 -1.2635  1.3846
 3356SOL    HW210125   3.642   2.170   1.160 -1.4914  1.6793 -1.0551
 3357SOL     OW10126   2.484   1.748   4.251  0.5145 -0.0645 -0.7001
 3357SOL    HW110127   2.420   1.690   4.209  0.2284 -0.0544 -0.2841
 3357SOL    HW210128   2.446   1.768   4.336  0.1776  1.5029 -1.1989
 3358SOL     OW10129   2.420   2.066   2.809  0.2787 -0.0738  0.6893
 3358SOL    HW110130   2.353   2.020   2.758  1.3756 -0.1362 -0.7581
 3358SOL    HW210131   2.468   2.117   2.745  1.6446 -0.0579  1.6790
 3359SOL     OW10132   4.822   1.957   3.330 -0.4320  0.4620 -0.4439
 3359SOL    HW110133   4.835   2.023   3.262 -1.3501 -0.1247 -1.2164
 3359SOL    HW210134   4.861   1.878   3.294  0.0196  0.4047  0.1677
 3360SOL     OW10135   1.630   2.827   0.248  0.4913 -0.0801 -0.0136
 3360SOL    HW110136   1.609   2.735   0.260 -2.5028  0.6169  1.1556
 3360SOL    HW210137   1.618   2.866   0.335  1.0811  1.5069 -0.6076
 3361SOL     OW10138   4.262   3.541   2.362  0.2186 -0.2710 -0.1323
 3361SOL    HW110139   4.266   3.565   2.270  0.4838  0.2230  0.0006
 3361SOL    HW210140   4.343   3.577   2.399  0.5958 -1.3087  0.0993
 3362SOL     OW10141   2.014   3.952   0.456  0.1715 -0.5549 -0.1332
 3362SOL    HW110142   2.062   3.888   0.402 -1.5037 -1.9333 -0.0816
 3362SOL    HW210143   1.991   3.904   0.536 -1.2120  0.0549 -0.1274
 3363SOL     OW10144   0.792   0.616   4.811  0.2156  0.4602  0.4958
 3363SOL    HW110145   0.717   0.629   4.869 -0.2338 -1.0263  0.3038
 3363SOL    HW210146   0.755   0.613   4.723  0.5987  0.4687  0.3300
 3364SOL     OW10147   1.234   3.776   3.487  0.1124  0.1923 -0.1287
 3364SOL    HW110148   1.261   3.740   3.572 -1.2219 -0.9546 -0.1414
 3364SOL    HW210149   1.313   3.776   3.434  0.6568 -0.4885  0.6596
 3365SOL     OW10150   4.000   4.977   2.554  0.1791  0.5366 -0.2847
 3365SOL    HW110151   3.925   4.925   2.526  1.8708 -2.0990 -0.2375
 3365SOL    HW210152   3.983   4.995   2.646 -1.0739  1.3254 -0.6368
 3366SOL     OW10153   0.612   0.839   3.033 -0.0023 -0.1060  0.1971
 3366SOL    HW110154   0.678   0.770   3.025 -1.1346 -1.0897 -1.1059
 3366SOL    HW210155   0.528   0.792   3.033 -0.7617  1.2140  0.2382
 3367SOL     OW10156   4.597   1.163   0.294  0.1052 -0.2413  0.9307
 3367SOL    HW110157   4.601   1.170   0.199  0.0954  0.5313  0.9794
 3367SOL    HW210158   4.603   1.070   0.312  1.1539 -0.3214  0.2231
 3368SOL     OW10159   3.574   1.023   3.511 -0.5232  0.5983 -0.2907
 3368SOL    HW110160   3.544   1.079   3.439 -2.3805  0.8190  0.5973
 3368SOL    HW210161   3.664   1.000   3.488 -1.4740 -0.4670 -3.3871
 3369SOL     OW10162   1.430   1.691   0.842  0.1685  0.4354  0.0113
 3369SOL    HW110163   1.479   1.757   0.792  0.9433  1.9543  2.6212
 3369SOL    HW210164   1.375   1.648   0.776  0.3182  3.0244 -1.9786
 3370SOL     OW10165   0.820   3.187   1.005 -0.4919 -0.2069 -0.2359
 3370SOL    HW110166   0.908   3.157   1.028 -0.5899 -0.0731  0.3359
 3370SOL    HW210167   0.828   3.282   0.994 -0.9074  0.0811  1.6104
 3371SOL     OW10168   4.779   1.996   0.636  0.4254  0.2290 -0.0917
 3371SOL    HW110169   4.859   2.033   0.598  1.4416 -3.1772 -1.6520
 3371SOL    HW210170   4.709   2.025   0.578  1.3160 -1.0147 -1.8593
 3372SOL     OW10171   3.773   0.113   0.188 -0.2541  0.0994  0.1482
 3372SOL    HW110172   3.736   0.150   0.108  1.4892  0.0079 -0.7527
 3372SOL    HW210173   3.822   0.036   0.158  0.0665 -0.1874  1.3690
 3373SOL     OW10174   3.251   4.759   2.196 -0.3751  0.4020 -0.6334
 3373SOL    HW110175   3.276   4.847   2.168 -1.2194  0.6925 -0.4950
 3373SOL    HW210176   3.164   4.745   2.159  0.7647 -1.4080 -2.9031
 3374SOL     OW10177   3.864   4.337   4.039 -0.0359  0.8003 -0.3043
 3374SOL    HW110178   3.816   4.337   3.957  0.4055 -0.1592 -0.5832
 3374SOL    HW210179   3.822   4.405   4.092 -0.3293  1.4209 -1.3108
 3375SOL     OW10180   4.749   2.519   4.605  0.4661 -0.5189 -0.1829
 3375SOL    HW110181   4.656   2.541   4.611  0.6944  0.5101 -0.1516
 3375SOL    HW210182   4.760   2.485   4.516 -0.2335 -2.2378  0.3364
 3376SOL     OW10183   4.803   4.590   1.236 -0.0166  0.7719  0.1428
 3376SOL    HW110184   4.804   4.586   1.332 -1.3598  0.3316  0.1496
 3376SOL    HW210185   4.712   4.575   1.212  0.2149  1.3877 -1.1973
 3377SOL     OW10186   4.856   3.967   2.418 -0.1216 -0.1081  0.3033
 3377SOL    HW110187   4.930   4.023   2.395 -0.5328 -0.2776 -1.5460
 3377SOL    HW210188   4.795   4.027   2.461 -0.0218  0.6208 -0.5310
 3378SOL     OW10189   4.611   0.316   3.137  0.4012 -0.3106  0.4070
 3378SOL    HW110190   4.578   0.368   3.210 -2.6261 -1.4160 -0.0373
 3378SOL    HW210191   4.631   0.381   3.069 -1.7035  0.4790  0.4516
 3379SOL     OW10192   3.508   2.835   3.373 -0.1330 -0.3916 -0.7822
 3379SOL    HW110193   3.536   2.747   3.396  1.5317  0.7339  2.0925
 3379SOL    HW210194   3.418   2.842   3.407  0.5532 -0.3305  1.1276
 3380SOL     OW10195   3.885   0.695   1.950  0.2210 -0.1671  0.0331
 3380SOL    HW110196   3.876   0.789   1.936  0.8998 -0.0062  0.6557
 3380SOL    HW210197   3.976   0.683   1.978  0.3939 -1.1069 -0.8567
 3381SOL     OW10198   1.427   2.597   2.307 -0.2601  0.4865 -0.0585
 3381SOL    HW110199   1.517   2.580   2.335  0.2064  0.6063 -1.4021
 3381SOL    HW210200   1.421   2.556   2.220 -1.4832  0.5410 -0.0205
 3382SOL     OW10201   4.078   3.879   3.876  0.5893  0.5177  0.3355
 3382SOL    HW110202   4.044   3.791   3.891  0.2579  0.9033  1.9154
 3382SOL    HW210203   4.006   3.926   3.834  0.4847  0.2716  0.2361
 3383SOL     OW10204   0.985   1.212   2.641 -0.0885  0.5622  0.0271
 3383SOL    HW110205   1.005   1.146   2.575  2.5453  0.0217  1.2373
 3383SOL    HW210206   0.906   1.179   2.685 -0.5189 -0.2343 -1.2910
 3384SOL     OW10207   4.235   2.753   4.383 -0.2395  0.5127  0.2118
 3384SOL    HW110208   4.182   2.689   4.430  1.3060 -0.7672  0.2995
 3384SOL    HW210209   4.212   2.837   4.423 -1.0823 -0.1884  1.2601
 3385SOL     OW10210   4.253   3.698   3.314 -0.2677 -0.0786 -0.4128
 3385SOL    HW110211   4.208   3.707   3.230 -1.1736  2.0320  0.2193
 3385SOL    HW210212   4.185   3.717   3.379  0.5761 -0.9880  0.7710
 3386SOL     OW10213   0.911   4.338   1.187  0.2253  0.4101 -0.6498
 3386SOL    HW110214   0.949   4.345   1.099 -1.5449  0.1326 -1.4801
 3386SOL    HW210215   0.827   4.385   1.180 -1.2524 -1.9493  0.0721
 3387SOL     OW10216   3.656   0.747   3.041 -0.3565 -0.2754 -1.1136
 3387SOL    HW110217   3.639   0.799   2.963 -1.8140  1.1746  0.0863
 3387SOL    HW210218   3.620   0.799   3.113 -0.2638 -2.1382  0.3772
 3388SOL     OW10219   2.014   1.560   2.949 -0.2092  0.1960  0.1419
 3388SOL    HW110220   1.978   1.520   3.028  0.3927 -0.7153 -0.0392
 3388SOL    HW210221   2.109   1.550   2.957 -0.1572 -0.2858 -0.8905
 3389SOL     OW10222   0.460   0.708   4.428  0.3923  0.9471 -0.2857
 3389SOL    HW110223   0.434   0.671   4.344 -0.0858  1.3102 -0.3029
 3389SOL    HW210224   0.395   0.675   4.490  1.9691 -1.1244  0.3899
 3390SOL     OW10225   4.513   2.405   1.732  0.5942 -0.0888  0.5786
 3390SOL    HW110226   4.480   2.475   1.789 -1.5981  2.2060 -3.0887
 3390SOL    HW210227   4.599   2.436   1.703 -0.7213  1.7968 -1.7149
 3391SOL     OW10228   4.609   0.859   1.017  0.0557 -0.0771 -0.8486
 3391SOL    HW110229   4.590   0.800   0.944  1.9112 -1.2849 -0.4211
 3391SOL    HW210230   4.690   0.904   0.991 -1.6039  2.8220 -1.4358
 3392SOL     OW10231   0.891   2.689   2.242 -1.0570 -0.2518  0.2155
 3392SOL    HW110232   0.902   2.594   2.246  1.0409 -0.0116  1.7791
 3392SOL    HW210233   0.803   2.704   2.277 -2.2741 -1.6865 -2.0009
 3393SOL     OW10234   3.358   1.762   4.225  0.5094  0.1063 -0.0010
 3393SOL    HW110235   3.310   1.707   4.163 -0.5734  1.4290 -0.3565
 3393SOL    HW210236   3.297   1.776   4.298  0.8903  0.5709  0.2360
 3394SOL     OW10237   0.569   2.075   1.648  0.3094 -0.1129 -0.6824
 3394SOL    HW110238   0.492   2.069   1.704  0.3759  1.5874 -0.3828
 3394SOL    HW210239   0.642   2.046   1.703  0.4706  2.1206  0.3631
 3395SOL     OW10240   4.649   1.451   1.039 -0.4149 -0.2079 -0.6857
 3395SOL    HW110241   4.686   1.389   1.102 -0.4387  0.3259 -0.1360
 3395SOL    HW210242   4.614   1.522   1.093 -0.8147  0.0583 -1.2820
 3396SOL     OW10243   3.093   1.084   3.403  0.2497 -0.0329  0.3603
 3396SOL    HW110244   3.085   1.027   3.479  0.9270  0.6705  0.9823
 3396SOL    HW210245   3.007   1.126   3.395 -0.0513 -0.6538  0.2812
 3397SOL     OW10246   0.111   4.818   4.417  0.2104  0.1715  0.3624
 3397SOL    HW110247   0.174   4.755   4.384  0.5024  0.2800  0.7112
 3397SOL    HW210248   0.102   4.797   4.510 -0.3176  0.1135  0.3064
 3398SOL     OW10249   4.084   3.157   1.973 -0.3379  0.3005  0.7194
 3398SOL    HW110250   4.139   3.165   1.896 -2.7384 -0.7997 -1.2488
 3398SOL    HW210251   4.073   3.062   1.985 -3.2559  0.4256 -0.1937
 3399SOL     OW10252   0.008   4.881   3.080  0.1027  0.4131 -0.8137
 3399SOL    HW110253   0.041   4.836   3.157 -1.6810  1.4106  0.6263
 3399SOL    HW210254   0.057   4.964   3.077  1.1061 -0.1861 -1.5721
 3400SOL     OW10255   2.984   3.392   2.367 -0.1549 -0.2342 -0.2504
 3400SOL    HW110256   3.066   3.384   2.317 -1.9908 -1.0951 -3.3806
 3400SOL    HW210257   2.962   3.302   2.391 -0.9021 -0.1810 -0.7173
 3401SOL     OW10258   2.165   0.650   1.130 -0.1771  0.3587 -0.5838
 3401SOL    HW110259   2.202   0.618   1.048  0.3512 -0.7384  0.0551
 3401SOL    HW210260   2.070   0.639   1.120 -0.1828  1.0523 -1.3655
 3402SOL     OW10261   4.193   1.469   2.960  0.2272 -0.6955 -0.1946
 3402SOL    HW110262   4.129   1.525   2.917  0.1893 -1.2219 -0.8299
 3402SOL    HW210263   4.262   1.529   2.989 -1.5890  0.2563  2.6155
 3403SOL     OW10264   3.135   0.883   4.041 -0.1844  0.1154 -0.0268
 3403SOL    HW110265   3.097   0.908   4.125 -0.0753  1.3995 -0.3355
 3403SOL    HW210266   3.063   0.890   3.979  0.6084  3.5324 -0.7956
 3404SOL     OW10267   0.679   4.016   4.481  0.3292 -0.3493  0.1082
 3404SOL    HW110268   0.727   4.099   4.481 -1.9008  1.0266  0.5011
 3404SOL    HW210269   0.744   3.951   4.507  1.7760  1.5169  1.4800
 3405SOL     OW10270   4.563   3.633   2.371 -0.0190  0.2818  0.0483
 3405SOL    HW110271   4.634   3.617   2.433 -0.4757 -2.6551 -0.0742
 3405SOL    HW210272   4.562   3.728   2.360  1.4260  0.7253  2.9221
 3406SOL     OW10273   0.037   4.054   0.668  0.1111 -0.0915 -0.1186
 3406SOL    HW110274   0.010   4.083   0.581  1.2544 -1.7714 -1.0798
 3406SOL    HW210275  -0.037   4.001   0.700  0.4878 -1.1652 -0.9602
 3407SOL     OW10276   0.982   3.656   0.789 -0.1337  0.4856  0.2881
 3407SOL    HW110277   0.925   3.682   0.717 -0.8924 -1.4409  0.1351
 3407SOL    HW210278   1.058   3.714   0.781 -0.4558  0.7151 -1.6842
 3408SOL     OW10279   1.640   4.330   1.113 -0.2428 -0.2082  0.0156
 3408SOL    HW110280   1.663   4.260   1.174 -0.8593 -0.7130 -0.3091
 3408SOL    HW210281   1.620   4.405   1.168 -0.4639 -0.5578  0.4194
 3409SOL     OW10282   4.213   4.513   4.806  0.5819  0.3626 -0.2202
 3409SOL    HW110283   4.144   4.578   4.802  0.0090 -0.1844  0.4722
 3409SOL    HW210284   4.208   4.467   4.722 -1.2871 -1.0298  0.5697
 3410SOL     OW10285   2.055   0.396   4.936 -0.1008  0.2752 -0.3258
 3410SOL    HW110286   2.068   0.490   4.944 -0.5043  0.7837 -3.8315
 3410SOL    HW210287   1.961   0.387   4.919  0.1801 -0.5649 -1.5275
 3411SOL     OW10288   0.416   2.026   3.870 -0.2214 -0.3756 -0.5606
 3411SOL    HW110289   0.478   1.998   3.803  0.6358 -1.5139  0.6571
 3411SOL    HW210290   0.341   2.059   3.821 -0.0211 -2.0493 -2.0811
 3412SOL     OW10291   0.831   4.193   0.382 -0.4727  0.6836 -0.2134
 3412SOL    HW110292   0.799   4.276   0.417 -0.5248  0.2743  0.7510
 3412SOL    HW210293   0.923   4.209   0.363 -0.2356  0.7116  0.8610
 3413SOL     OW10294   4.291   3.344   3.287  0.1360  0.7472 -0.0455
 3413SOL    HW110295   4.210   3.373   3.243 -1.2276  1.1547  2.5586
 3413SOL    HW210296   4.279   3.368   3.378  2.8334 -0.0918  0.6238
 3414SOL     OW10297   2.162   3.408   0.545 -0.4483  0.1918  0.4174
 3414SOL    HW110298   2.196   3.402   0.634 -2.0975 -3.2791  0.9603
 3414SOL    HW210299   2.235   3.380   0.489 -0.2359 -0.2894  0.9275
 3415SOL     OW10300   0.716   2.944   4.883 -0.7423  0.1945 -0.5450
 3415SOL    HW110301   0.757   3.029   4.898  2.0270 -1.3587  1.7325
 3415SOL    HW210302   0.645   2.939   4.947  0.0714  0.2357  0.3763
 3416SOL     OW10303   0.324   4.030   0.481  0.5615  0.0165 -0.0810
 3416SOL    HW110304   0.251   3.971   0.463  0.8088 -0.3805  0.2022
 3416SOL    HW210305   0.401   3.981   0.453  0.6696  0.6973 -1.0189
 3417SOL     OW10306   0.062   1.645   4.361 -0.3180 -0.0651  0.0436
 3417SOL    HW110307   0.109   1.568   4.391  0.8402  1.1774  1.6209
 3417SOL    HW210308   0.100   1.666   4.276  0.6119 -0.1964  0.4239
 3418SOL     OW10309   4.652   1.876   0.260  0.2448 -0.0655 -0.2375
 3418SOL    HW110310   4.674   1.926   0.339  1.8282 -0.3082 -0.4867
 3418SOL    HW210311   4.678   1.933   0.188  1.0215 -0.7788 -0.5397
 3419SOL     OW10312   0.681   4.453   2.011  0.1771  0.0523 -0.5344
 3419SOL    HW110313   0.646   4.511   1.944  0.0720  0.5370 -0.0749
 3419SOL    HW210314   0.774   4.476   2.017  0.3656 -0.5504 -1.0693
 3420SOL     OW10315   0.455   3.910   2.862  0.2946  0.5634  0.0961
 3420SOL    HW110316   0.424   3.994   2.830  1.2145  0.1864 -1.9210
 3420SOL    HW210317   0.463   3.922   2.957 -2.7634  1.6678  0.3391
 3421SOL     OW10318   2.564   2.568   1.042 -0.4062 -0.4511  0.4133
 3421SOL    HW110319   2.576   2.661   1.023  0.8019 -1.2049 -3.1500
 3421SOL    HW210320   2.484   2.566   1.095 -0.3823  2.5975  0.7842
 3422SOL     OW10321   4.959   0.740   2.604 -0.7588  0.2631 -0.3032
 3422SOL    HW110322   4.976   0.672   2.539  0.2743  0.7185 -0.5238
 3422SOL    HW210323   4.932   0.816   2.553  2.7372  1.5338 -0.5629
 3423SOL     OW10324   3.435   3.613   1.791  0.3041 -0.4468  0.2538
 3423SOL    HW110325   3.404   3.615   1.701  0.9031  1.8782  0.0438
 3423SOL    HW210326   3.519   3.659   1.789 -0.4324  1.1358  2.2215
 3424SOL     OW10327   0.100   3.463   1.323 -0.1436 -0.0798  0.8110
 3424SOL    HW110328   0.067   3.483   1.410  0.9589 -0.2674  1.2775
 3424SOL    HW210329   0.176   3.408   1.337 -0.8553 -1.4401 -0.3354
 3425SOL     OW10330   1.147   1.570   4.264  0.0204 -0.0013 -0.0632
 3425SOL    HW110331   1.200   1.582   4.184  1.4451  1.0279  0.9840
 3425SOL    HW210332   1.192   1.500   4.312 -1.6281 -1.6042 -0.7474
 3426SOL     OW10333   1.305   3.969   1.642 -0.2699  0.1345  0.4536
 3426SOL    HW110334   1.316   3.983   1.736  0.3379  1.1175  0.2511
 3426SOL    HW210335   1.269   3.881   1.635 -0.7695  0.2219  1.6318
 3427SOL     OW10336   0.402   0.827   0.513 -0.5565 -0.0548  0.5236
 3427SOL    HW110337   0.465   0.899   0.511 -0.8298  0.1741 -0.6374
 3427SOL    HW210338   0.415   0.782   0.430 -1.3641 -0.4875  0.6239
 3428SOL     OW10339   0.305   0.876   2.080  0.0068  0.1654  0.8744
 3428SOL    HW110340   0.312   0.781   2.079  0.7592  0.2155  0.1596
 3428SOL    HW210341   0.367   0.905   2.013 -3.1741  0.9777 -1.9818
 3429SOL     OW10342   3.876   2.726   3.378  0.0683  0.2644 -0.1924
 3429SOL    HW110343   3.805   2.694   3.434 -0.3440  0.7807 -0.4032
 3429SOL    HW210344   3.955   2.713   3.429 -0.1938 -0.1703  0.1156
 3430SOL     OW10345  -0.020   3.846   4.400 -0.4386 -0.3314 -0.0220
 3430SOL    HW110346   0.075   3.845   4.404 -0.3913 -0.4866 -0.9810
 3430SOL    HW210347  -0.048   3.853   4.491  0.4620 -2.7070  0.5197
 3431SOL     OW10348   2.524   0.990   2.519  0.2318 -0.3942 -0.2435
 3431SOL    HW110349   2.445   0.979   2.573  0.3124 -0.4384 -0.1359
 3431SOL    HW210350   2.495   1.045   2.447  0.1595 -0.2068 -0.0744
 3432SOL     OW10351   0.948   1.722   2.068 -0.2413  0.4248 -0.2126
 3432SOL    HW110352   1.012   1.695   2.003 -1.2321 -0.9329 -0.6822
 3432SOL    HW210353   0.958   1.659   2.139  0.0885  1.2417  0.4875
 3433SOL     OW10354   1.603   4.003   0.295 -0.5972 -0.0001  0.0204
 3433SOL    HW110355   1.607   3.912   0.268  0.4923 -0.0460  0.3255
 3433SOL    HW210356   1.659   4.009   0.372  2.0950  1.5751 -1.8862
 3434SOL     OW10357   2.680   0.956   1.286 -0.2573  0.1471 -0.1596
 3434SOL    HW110358   2.772   0.932   1.278 -0.5940 -1.0619 -0.5966
 3434SOL    HW210359   2.633   0.890   1.234 -1.5221 -0.4602  1.6473
 3435SOL     OW10360   1.359   4.548   1.049  0.3233 -0.3579  0.4211
 3435SOL    HW110361   1.272   4.554   1.088  0.9966  2.0623  1.8140
 3435SOL    HW210362   1.418   4.577   1.119  1.9601  0.6432 -1.2773
 3436SOL     OW10363   3.628   1.507   2.681 -0.0250 -0.0303  0.8101
 3436SOL    HW110364   3.559   1.512   2.748 -2.1869 -2.1964 -1.0793
 3436SOL    HW210365   3.581   1.496   2.599  2.5920  0.2867 -0.8470
 3437SOL     OW10366   4.382   0.381   4.689 -0.4425 -0.3346  0.0408
 3437SOL    HW110367   4.449   0.391   4.623 -0.4665  0.2036  0.0932
 3437SOL    HW210368   4.419   0.420   4.768 -1.0926  0.6364 -0.1193
 3438SOL     OW10369   1.264   3.468   3.396  0.6122  0.9751 -0.0766
 3438SOL    HW110370   1.347   3.441   3.435  1.7561  4.0641 -0.0743
 3438SOL    HW210371   1.278   3.460   3.302  0.8927  1.3336 -0.0704
 3439SOL     OW10372   1.722   4.754   4.247  0.0260 -0.2954 -0.3945
 3439SOL    HW110373   1.735   4.803   4.329  1.0349 -0.5745 -0.3780
 3439SOL    HW210374   1.628   4.763   4.228 -0.0691  0.4219  0.3795
 3440SOL     OW10375   3.435   1.175   4.127 -0.3829  0.0706 -0.1300
 3440SOL    HW110376   3.524   1.169   4.163  0.0797 -1.2036 -1.4226
 3440SOL    HW210377   3.385   1.111   4.177 -0.2654 -0.1231 -0.2589
 3441SOL     OW10378   2.953   1.749   4.193 -0.6203  0.3031 -0.7994
 3441SOL    HW110379   2.863   1.775   4.170 -0.1878  0.6278 -2.2551
 3441SOL    HW210380   2.995   1.732   4.109  0.7681  0.4211 -0.1610
 3442SOL     OW10381   4.751   2.891   3.600 -0.3755 -0.3205 -0.4554
 3442SOL    HW110382   4.668   2.844   3.606  0.7849 -2.9555 -2.6905
 3442SOL    HW210383   4.806   2.835   3.545  2.1642  2.3598 -0.8928
 3443SOL     OW10384   1.136   4.002   4.938  0.0038 -0.3725 -0.0754
 3443SOL    HW110385   1.141   4.010   5.033  1.5807  2.1999 -0.2759
 3443SOL    HW210386   1.046   3.975   4.921 -1.2505  2.0348  2.0528
 3444SOL     OW10387   4.232   4.633   2.337 -0.2114 -0.1951  1.1260
 3444SOL    HW110388   4.268   4.656   2.423  0.3378 -0.4173  0.9639
 3444SOL    HW210389   4.309   4.606   2.286 -0.4143  0.7299  0.3062
 3445SOL     OW10390   0.262   3.916   4.420 -0.7591  0.3032 -0.7174
 3445SOL    HW110391   0.254   4.009   4.400  0.0502  0.8561  1.1989
 3445SOL    HW210392   0.349   3.892   4.387 -0.6507  0.4469 -0.5446
 3446SOL     OW10393   0.884   3.506   3.346  0.1488  0.1740  0.2338
 3446SOL    HW110394   0.961   3.554   3.315 -1.0873  0.8133 -2.0426
 3446SOL    HW210395   0.816   3.524   3.281 -0.6003 -4.2067 -0.5103
 3447SOL     OW10396   3.261   3.656   2.881 -0.0182 -0.2442 -0.1170
 3447SOL    HW110397   3.167   3.673   2.876  0.2442  1.0452 -1.3926
 3447SOL    HW210398   3.293   3.713   2.951 -0.4907 -2.4150  1.9696
 3448SOL     OW10399   3.591   1.032   1.354  0.0552  0.2505 -0.2647
 3448SOL    HW110400   3.568   1.078   1.435 -1.0559 -1.7036  0.6061
 3448SOL    HW210401   3.519   0.970   1.341  1.1993 -0.8524 -1.6678
 3449SOL     OW10402   4.541   1.640   2.858 -0.5752 -0.4235  0.3705
 3449SOL    HW110403   4.462   1.677   2.899 -1.0927 -2.8560  1.7306
 3449SOL    HW210404   4.602   1.628   2.931  0.5314  0.0990 -0.4525
 3450SOL     OW10405   0.983   1.104   4.071  0.2344  0.1067  0.1166
 3450SOL    HW110406   0.953   1.149   4.149 -0.2120 -1.2229  0.7478
 3450SOL    HW210407   0.916   1.037   4.054  2.0163 -1.9541  0.6998
 3451SOL     OW10408   3.557   4.356   0.483 -0.0159 -0.4625 -0.1298
 3451SOL    HW110409   3.645   4.394   0.481 -0.3220  0.2372 -1.0624
 3451SOL    HW210410   3.500   4.427   0.453 -1.1973 -0.1764  2.5078
 3452SOL     OW10411   1.420   2.354   1.703 -0.6658  0.4778 -0.0366
 3452SOL    HW110412   1.510   2.329   1.685 -0.6728 -1.5878  2.2308
 3452SOL    HW210413   1.368   2.296   1.646 -0.5632 -0.4386  0.7684
 3453SOL     OW10414   0.942   2.133   4.432 -0.0997 -0.5613  0.0401
 3453SOL    HW110415   0.901   2.125   4.346 -0.1366 -0.1206  0.0109
 3453SOL    HW210416   0.923   2.051   4.477 -1.5090 -0.1477  0.2388
 3454SOL     OW10417   2.241   1.901   0.261  0.1054  0.5463  0.1323
 3454SOL    HW110418   2.291   1.935   0.335  1.2443  1.3160 -0.9556
 3454SOL    HW210419   2.154   1.940   0.271  0.6469  1.7290  0.3286
 3455SOL     OW10420   0.563   0.229   1.042  0.1505 -0.1524  0.3508
 3455SOL    HW110421   0.604   0.151   1.079 -0.2733 -0.2268  0.6782
 3455SOL    HW210422   0.492   0.250   1.103 -0.0706  0.1804 -0.0111
 3456SOL     OW10423   1.551   1.845   0.682  0.0358  0.4837 -0.2808
 3456SOL    HW110424   1.498   1.810   0.610  0.2997  0.3087 -0.3964
 3456SOL    HW210425   1.641   1.844   0.647  0.0565  1.2045 -0.2509
 3457SOL     OW10426   0.352   4.207   4.759  0.1417  0.2717  0.1980
 3457SOL    HW110427   0.357   4.235   4.668 -0.7917  1.0238  0.3614
 3457SOL    HW210428   0.340   4.288   4.809 -0.4006 -0.2141  0.8829
 3458SOL     OW10429   2.930   3.913   4.796  0.4966  0.4363  0.2663
 3458SOL    HW110430   2.945   3.846   4.862  1.5752 -1.3688 -1.6675
 3458SOL    HW210431   2.876   3.869   4.730  2.1471  1.0131 -1.5918
 3459SOL     OW10432   1.103   2.471   0.524  0.6526 -0.6914  0.0938
 3459SOL    HW110433   1.016   2.456   0.487 -0.2194  1.2772  1.1641
 3459SOL    HW210434   1.164   2.437   0.458 -0.8872 -3.4039 -0.0807
 3460SOL     OW10435   0.798   3.113   2.853 -0.1432 -0.0335  0.3684
 3460SOL    HW110436   0.848   3.125   2.773 -1.3809  2.9459 -0.1059
 3460SOL    HW210437   0.864   3.101   2.922  1.0637  0.4007 -0.6800
 3461SOL     OW10438   0.838   2.430   2.353  0.2777 -0.1559  0.4032
 3461SOL    HW110439   0.755   2.426   2.400 -0.4055  1.4596 -0.5581
 3461SOL    HW210440   0.904   2.435   2.421 -0.6093  1.0262  1.2206
 3462SOL     OW10441   0.605   0.499   3.082  0.3253 -0.1435  0.1846
 3462SOL    HW110442   0.695   0.530   3.091  0.5877 -0.8510  0.1043
 3462SOL    HW210443   0.564   0.518   3.167  1.2457 -1.9389  1.0972
 3463SOL     OW10444   4.459   4.064   1.440 -0.1201 -0.4269  0.3581
 3463SOL    HW110445   4.411   4.143   1.415 -0.4538 -1.0010 -0.9416
 3463SOL    HW210446   4.550   4.092   1.446 -0.0551 -0.1688 -1.3262
 3464SOL     OW10447   0.550   1.680   3.539  0.1152  0.1100  0.6429
 3464SOL    HW110448   0.471   1.694   3.486  0.7972  1.6458 -0.0066
 3464SOL    HW210449   0.595   1.608   3.495 -0.5699 -0.3271  0.6305
 3465SOL     OW10450   2.486   1.041   4.360  1.0088  0.2736 -0.0956
 3465SOL    HW110451   2.424   0.971   4.340  1.4555  0.1106 -0.9557
 3465SOL    HW210452   2.517   1.071   4.275  1.5733  0.8369  0.2989
 3466SOL     OW10453   2.889   0.023   0.533  0.2686 -0.2994  0.1028
 3466SOL    HW110454   2.956  -0.032   0.493  3.2673  1.9329  1.6444
 3466SOL    HW210455   2.921   0.112   0.520 -2.3503  0.8703  1.1140
 3467SOL     OW10456   4.666   1.619   1.965  0.4802  0.3285  0.1886
 3467SOL    HW110457   4.691   1.552   2.029  0.0133  0.0506  0.0907
 3467SOL    HW210458   4.744   1.673   1.954  0.1804  1.2155  1.9996
 3468SOL     OW10459   0.008   2.494   0.493  0.0303 -1.0661  0.2146
 3468SOL    HW110460   0.098   2.473   0.518  0.3045  1.0387  1.1997
 3468SOL    HW210461  -0.036   2.514   0.575 -0.0828  2.2626 -0.5114
 3469SOL     OW10462   2.214   1.776   4.656  0.3501 -0.6370 -0.6419
 3469SOL    HW110463   2.268   1.809   4.585  0.8534 -1.9012 -0.8774
 3469SOL    HW210464   2.175   1.854   4.696  0.2603  0.1077 -2.1296
 3470SOL     OW10465   4.534   2.063   0.473  0.1997 -0.1441  0.2998
 3470SOL    HW110466   4.455   2.075   0.525 -0.2061  1.0101 -0.5273
 3470SOL    HW210467   4.538   2.141   0.418  1.3161 -0.7141 -0.4670
 3471SOL     OW10468   1.802   3.542   2.712 -0.1223 -0.1595 -0.3357
 3471SOL    HW110469   1.820   3.635   2.723 -1.3558  0.0358  0.2444
 3471SOL    HW210470   1.815   3.505   2.800 -0.6926 -0.3263 -0.3167
 3472SOL     OW10471   2.497   4.520   0.353 -0.1625  0.1811 -0.3160
 3472SOL    HW110472   2.570   4.504   0.292 -0.4852  2.7517 -1.5491
 3472SOL    HW210473   2.529   4.590   0.410 -1.5511  1.2332 -0.7636
 3473SOL     OW10474   3.263   0.352   3.345 -0.3215 -0.2933  0.0288
 3473SOL    HW110475   3.295   0.293   3.412 -0.3284  0.3840  0.6458
 3473SOL    HW210476   3.179   0.384   3.378  0.0943  0.7401  0.1440
 3474SOL     OW10477   3.006   3.690   2.339 -0.2171  0.3216  0.2936
 3474SOL    HW110478   3.041   3.688   2.428  1.4188 -0.9406 -0.3205
 3474SOL    HW210479   2.970   3.602   2.325  0.8708  0.0243 -0.7632
 3475SOL     OW10480   0.336   2.922   3.951  0.2525 -0.2148 -0.3754
 3475SOL    HW110481   0.334   3.018   3.956 -1.1128 -0.2297 -0.3075
 3475SOL    HW210482   0.429   2.900   3.959  0.4479  1.0241  1.3433
 3476SOL     OW10483   3.381   0.722   4.599 -0.9277  0.8507 -0.2000
 3476SOL    HW110484   3.443   0.728   4.671 -0.9530  1.0500 -0.1930
 3476SOL    HW210485   3.311   0.666   4.632 -0.4411  0.0848 -0.4387
 3477SOL     OW10486   4.136   0.374   0.218  0.6252 -0.0378  0.5280
 3477SOL    HW110487   4.041   0.368   0.209  0.8572 -1.6992 -1.8679
 3477SOL    HW210488   4.160   0.293   0.263  1.0510 -1.0093 -1.3274
 3478SOL     OW10489   1.412   1.457   2.102  0.4391  0.3343  0.2531
 3478SOL    HW110490   1.364   1.402   2.039 -0.0356 -1.6946  2.2451
 3478SOL    HW210491   1.380   1.545   2.086 -0.9470 -0.3787 -1.2007
 3479SOL     OW10492   3.761   1.929   1.036 -0.4625 -0.5925 -0.1459
 3479SOL    HW110493   3.794   1.994   0.975 -0.8504 -0.4696 -0.2287
 3479SOL    HW210494   3.688   1.973   1.081 -1.4009 -1.2969 -0.9367
 3480SOL     OW10495   2.405   1.700   4.849  0.4134 -0.0587  0.7471
 3480SOL    HW110496   2.421   1.792   4.872 -2.4000  0.6512  0.2252
 3480SOL    HW210497   2.344   1.704   4.776 -2.8181 -2.2540  3.0606
 3481SOL     OW10498   1.848   1.451   1.097  0.1995 -0.0031 -0.3883
 3481SOL    HW110499   1.793   1.459   1.020 -1.2422 -1.3844  0.4451
 3481SOL    HW210500   1.936   1.474   1.067 -0.7643  2.0839 -1.7895
 3482SOL     OW10501   4.113   1.739   4.930 -0.0617  0.1773  0.7029
 3482SOL    HW110502   4.049   1.788   4.879 -1.6466  0.4130  2.7932
 3482SOL    HW210503   4.138   1.798   5.001  0.5968 -0.8182  1.3238
 3483SOL     OW10504   0.614   4.966   0.819 -0.0293  0.1566  0.5281
 3483SOL    HW110505   0.603   4.938   0.910  1.6980 -0.4497  0.5826
 3483SOL    HW210506   0.526   4.992   0.791 -0.7640 -0.5589  2.0616
 3484SOL     OW10507   4.002   4.508   3.296 -0.4349  0.1853 -0.0451
 3484SOL    HW110508   4.045   4.448   3.235 -2.3896 -1.3301 -0.0559
 3484SOL    HW210509   3.927   4.543   3.247 -1.8454 -0.7944  1.3109
 3485SOL     OW10510   1.889   3.105   2.433 -0.1390 -0.2809 -0.1074
 3485SOL    HW110511   1.864   3.198   2.428  1.1005  0.0442 -0.6634
 3485SOL    HW210512   1.869   3.071   2.346 -0.9786 -0.6447  0.2246
 3486SOL     OW10513   1.606   3.811   3.709  0.2818 -0.5646  0.4354
 3486SOL    HW110514   1.604   3.869   3.786  0.3780  0.8500 -0.5831
 3486SOL    HW210515   1.690   3.766   3.716  0.9165  0.5842  0.4536
 3487SOL     OW10516   0.317   1.418   3.890 -0.4763  0.4001 -0.6871
 3487SOL    HW110517   0.247   1.357   3.913  0.4778 -0.6876 -0.6288
 3487SOL    HW210518   0.279   1.505   3.908 -1.3648 -0.2175  0.5888
 3488SOL     OW10519   2.100   1.479   0.773 -0.6476  0.4649  0.1072
 3488SOL    HW110520   2.104   1.384   0.783 -2.1347  0.3144 -0.4140
 3488SOL    HW210521   2.167   1.499   0.708  0.5292 -0.0497  1.1202
 3489SOL     OW10522   3.130   4.524   3.575 -0.8536 -0.0213 -0.2670
 3489SOL    HW110523   3.221   4.531   3.603 -1.1587  1.4567  0.3939
 3489SOL    HW210524   3.107   4.432   3.591 -0.4932  0.3199  2.8028
 3490SOL     OW10525   1.052   1.162   3.590  0.0636 -0.3987  0.1924
 3490SOL    HW110526   0.976   1.218   3.598 -0.6512 -1.3271  0.1030
 3490SOL    HW210527   1.112   1.193   3.658  0.0853  1.0475 -0.4603
 3491SOL     OW10528   3.299   2.898   1.611  0.1118  0.3504  0.2492
 3491SOL    HW110529   3.294   2.831   1.680  1.0624 -0.4516 -0.4308
 3491SOL    HW210530   3.234   2.963   1.637 -1.1010 -0.9992  0.7673
 3492SOL     OW10531   3.894   2.062   0.693  0.0498  1.0762  0.0009
 3492SOL    HW110532   3.890   2.102   0.780  0.8965  2.1533 -0.4390
 3492SOL    HW210533   3.987   2.066   0.669  0.6748 -3.1998  0.8383
 3493SOL     OW10534   4.512   3.455   4.941 -0.7805 -0.9678 -0.7815
 3493SOL    HW110535   4.469   3.539   4.930 -0.8016 -1.0222 -1.1091
 3493SOL    HW210536   4.601   3.468   4.907  0.5649  0.0634  2.6595
 3494SOL     OW10537   0.326   4.199   4.292  0.8024  0.4946  0.1921
 3494SOL    HW110538   0.369   4.253   4.225  0.5937  0.2290 -0.1605
 3494SOL    HW210539   0.262   4.147   4.243  0.9330 -0.0020  0.5373
 3495SOL     OW10540   2.904   4.796   2.590  0.0512  0.1355 -0.7367
 3495SOL    HW110541   2.923   4.712   2.548 -1.3680 -0.0547 -1.0252
 3495SOL    HW210542   2.874   4.852   2.519  0.1405  0.6232 -0.3923
 3496SOL     OW10543   0.648   0.345   0.324  0.2418  0.3286 -0.2180
 3496SOL    HW110544   0.633   0.363   0.231 -1.8091 -2.2769 -0.5314
 3496SOL    HW210545   0.736   0.305   0.326  0.1593  0.0637 -1.1246
 3497SOL     OW10546   3.042   1.890   2.192 -0.3638  0.4939  0.1093
 3497SOL    HW110547   2.975   1.878   2.125 -0.8664 -1.3151  0.8563
 3497SOL    HW210548   3.033   1.981   2.219 -0.5397  1.0967 -1.8435
 3498SOL     OW10549   2.131   1.621   3.769  0.1654  0.2673 -0.3321
 3498SOL    HW110550   2.080   1.618   3.850  1.6928 -0.0672  0.6592
 3498SOL    HW210551   2.074   1.582   3.703 -1.3260  1.0470  0.4451
 3499SOL     OW10552   1.819   4.109   3.877  0.1177 -0.6601  0.3001
 3499SOL    HW110553   1.815   4.032   3.934  0.5586  0.0132  1.2710
 3499SOL    HW210554   1.759   4.171   3.917  0.5207 -0.1328  0.1018
 3500SOL     OW10555   1.950   1.879   4.921  0.5147 -0.2396 -0.3728
 3500SOL    HW110556   2.004   1.957   4.910 -1.3147  1.3112  0.9866
 3500SOL    HW210557   1.891   1.880   4.846  0.1010  0.0159 -0.0436
 3501SOL     OW10558   2.781   0.510   1.643  0.5899  0.0975  0.6212
 3501SOL    HW110559   2.733   0.511   1.726  0.8097  1.9565  0.7669
 3501SOL    HW210560   2.861   0.462   1.662 -0.3596 -1.5029  0.8363
 3502SOL     OW10561   0.233   2.742   4.619 -0.2995 -0.3251 -0.3124
 3502SOL    HW110562   0.159   2.691   4.652  0.0577  0.8382  2.5387
 3502SOL    HW210563   0.194   2.825   4.590 -0.3853 -0.6731 -1.2337
 3503SOL     OW10564   4.467   3.831   2.971 -0.2573 -0.2072 -0.0674
 3503SOL    HW110565   4.538   3.888   2.940 -0.8143 -0.7748 -2.6395
 3503SOL    HW210566   4.418   3.885   3.032  0.2889  1.4613 -1.0260
 3504SOL     OW10567   1.832   1.411   2.486  0.7166 -0.6691 -0.1699
 3504SOL    HW110568   1.826   1.452   2.572  0.5818  1.2683 -1.0512
 3504SOL    HW210569   1.917   1.367   2.486  1.3848  0.5625  0.4491
 3505SOL     OW10570   2.093   2.681   0.583 -0.3089 -0.1513  0.3949
 3505SOL    HW110571   2.094   2.686   0.487  0.7083 -0.6435  0.3731
 3505SOL    HW210572   2.049   2.762   0.610  4.1568  2.8450 -0.3267
 3506SOL     OW10573   1.447   4.707   4.638 -0.7481  0.0024 -0.0697
 3506SOL    HW110574   1.523   4.659   4.605 -0.6046 -0.0965  0.3943
 3506SOL    HW210575   1.393   4.723   4.561 -1.2954 -1.7881 -0.1075
 3507SOL     OW10576   1.011   3.644   1.129 -0.1799 -0.6093  0.2629
 3507SOL    HW110577   0.964   3.562   1.146 -1.5968  0.1357  0.0401
 3507SOL    HW210578   0.946   3.702   1.091  0.8156  0.6259  0.3724
 3508SOL     OW10579   0.584   3.777   1.372  0.0995 -0.0560 -0.2927
 3508SOL    HW110580   0.657   3.837   1.355  0.5983 -0.9266 -1.3884
 3508SOL    HW210581   0.541   3.767   1.287  0.5626 -1.9163 -0.3562
 3509SOL     OW10582   1.547   3.922   2.158  0.2363 -0.4513 -0.5328
 3509SOL    HW110583   1.591   3.980   2.220  2.3237 -0.6765 -1.6840
 3509SOL    HW210584   1.511   3.852   2.212 -0.0216  0.5336  0.6243
 3510SOL     OW10585   3.626   0.207   4.416 -0.7716  0.7281 -0.3019
 3510SOL    HW110586   3.710   0.242   4.386 -1.3281  0.8688 -1.7757
 3510SOL    HW210587   3.649   0.131   4.470  0.4279  2.6310  2.0912
 3511SOL     OW10588   1.811   0.912   1.405 -0.2048 -0.1378 -1.0056
 3511SOL    HW110589   1.797   0.889   1.313 -0.4286  0.9257 -1.2485
 3511SOL    HW210590   1.892   0.867   1.429 -0.7934 -1.4290 -1.3472
 3512SOL     OW10591   3.589   0.149   0.761  0.3019  0.2906  0.6247
 3512SOL    HW110592   3.597   0.132   0.667  1.7517 -1.1089  0.9630
 3512SOL    HW210593   3.675   0.182   0.787 -0.0335  0.4996  1.5084
 3513SOL     OW10594   0.766   0.137   1.883  0.4132 -0.1974  0.4152
 3513SOL    HW110595   0.802   0.178   1.962 -0.4329  1.4959 -0.0447
 3513SOL    HW210596   0.826   0.164   1.813 -1.1275  1.8364 -0.1930
 3514SOL     OW10597   3.074   0.092   2.621 -0.0216  0.5453 -0.1650
 3514SOL    HW110598   3.101   0.154   2.689 -0.3151  0.0162  0.4351
 3514SOL    HW210599   3.154   0.045   2.598  0.0994  0.7968 -0.2634
 3515SOL     OW10600   0.945   4.072   3.543  0.2615 -0.0640  0.2575
 3515SOL    HW110601   0.932   3.978   3.532  1.6366 -0.5865  2.4179
 3515SOL    HW210602   0.873   4.113   3.495  0.7359 -2.1119 -2.3956
 3516SOL     OW10603   0.171   1.225   1.605 -0.2648  0.1258 -0.1349
 3516SOL    HW110604   0.117   1.187   1.674  0.5450  1.4526  1.2891
 3516SOL    HW210605   0.206   1.150   1.557  1.0124 -0.9761  2.3571
 3517SOL     OW10606   1.738   3.910   4.035 -0.1113 -0.1140  0.1988
 3517SOL    HW110607   1.722   3.964   4.113  2.3936 -0.0595  0.7462
 3517SOL    HW210608   1.655   3.864   4.021 -1.2514  1.3222  1.7194
 3518SOL     OW10609   0.781   3.000   2.260 -0.3139 -0.2685  0.0382
 3518SOL    HW110610   0.727   2.990   2.339  0.0507 -0.7304  0.2301
 3518SOL    HW210611   0.861   2.951   2.279 -0.2724 -0.4849 -0.6662
 3519SOL     OW10612   1.039   0.452   0.764  0.0639 -0.5553 -0.0195
 3519SOL    HW110613   0.971   0.460   0.697 -0.2315 -1.2821  0.1830
 3519SOL    HW210614   0.992   0.450   0.847  0.4754  1.1019  0.2909
 3520SOL     OW10615   2.838   4.097   3.416  0.5544 -0.1444 -0.2124
 3520SOL    HW110616   2.899   4.064   3.483 -1.9916  0.7718  2.8370
 3520SOL    HW210617   2.825   4.024   3.357  0.7778 -2.1044  2.0096
 3521SOL     OW10618   2.016   4.212   2.607  0.1500  0.2268  0.9205
 3521SOL    HW110619   1.970   4.246   2.683 -1.1528  1.0523 -0.2037
 3521SOL    HW210620   1.967   4.244   2.532  0.4141 -1.9323 -0.2663
 3522SOL     OW10621   1.039   3.087   3.007 -0.4557 -0.2277  0.3581
 3522SOL    HW110622   1.115   3.059   2.957 -0.7234 -0.8620  0.2997
 3522SOL    HW210623   1.064   3.173   3.043 -0.7172  0.8519 -1.8793
 3523SOL     OW10624   1.806   3.407   1.772  0.1374  0.2411  0.6169
 3523SOL    HW110625   1.845   3.437   1.854 -0.8226 -0.3534  1.3278
 3523SOL    HW210626   1.711   3.408   1.789 -0.1076  0.5395 -0.6418
 3524SOL     OW10627   4.755   0.897   0.252 -0.3614 -0.4054 -0.0192
 3524SOL    HW110628   4.732   0.825   0.311 -0.5810  0.2221  0.6774
 3524SOL    HW210629   4.797   0.961   0.308 -1.0139  0.4205 -0.4507
 3525SOL     OW10630   4.381   0.331   1.147  0.3357 -0.6938  0.4228
 3525SOL    HW110631   4.470   0.368   1.142  0.1948 -0.3397  0.5004
 3525SOL    HW210632   4.348   0.336   1.057 -0.2090  0.6972  0.6795
 3526SOL     OW10633   0.369   4.514   3.467  0.2764  0.2965  0.3575
 3526SOL    HW110634   0.291   4.466   3.495 -0.1247  0.5089 -0.3553
 3526SOL    HW210635   0.381   4.583   3.532 -0.9357  1.1086 -0.2557
 3527SOL     OW10636   2.127   4.165   1.413 -0.5216  0.1155 -0.2215
 3527SOL    HW110637   2.183   4.162   1.336 -1.5832 -0.3277 -0.9953
 3527SOL    HW210638   2.040   4.187   1.379 -0.5061  2.6483  1.1378
 3528SOL     OW10639   3.914   1.950   2.436 -0.2780  0.2233 -0.0020
 3528SOL    HW110640   3.966   1.910   2.366 -1.7576 -0.4344 -0.7628
 3528SOL    HW210641   3.977   1.966   2.507  0.8645 -0.9418 -0.7243
 3529SOL     OW10642   0.854   1.970   2.022  0.5176  0.5706 -0.3271
 3529SOL    HW110643   0.778   1.994   2.076  0.3890  1.5526 -0.9263
 3529SOL    HW210644   0.876   1.881   2.051  0.1621  0.8935  1.0123
 3530SOL     OW10645   4.153   0.189   3.711  0.0950 -0.7711  0.5993
 3530SOL    HW110646   4.193   0.184   3.798 -0.1511 -0.4682  0.7334
 3530SOL    HW210647   4.069   0.143   3.721 -0.5988  0.5368  0.9150
 3531SOL     OW10648   4.702   3.667   3.831  0.3142 -0.1503 -0.0592
 3531SOL    HW110649   4.669   3.694   3.916 -0.0601  0.8404 -0.5071
 3531SOL    HW210650   4.752   3.588   3.849 -0.2028 -0.2545  0.9997
 3532SOL     OW10651   4.957   4.902   2.539 -0.1462 -0.0150  0.0954
 3532SOL    HW110652   4.978   4.811   2.517 -0.8451 -0.4060  0.9745
 3532SOL    HW210653   4.935   4.900   2.632 -0.2334  1.0497  0.1145
 3533SOL     OW10654   3.055   1.396   0.794  0.0185  0.2736 -0.0393
 3533SOL    HW110655   3.113   1.468   0.769 -1.4616  0.4788 -3.3740
 3533SOL    HW210656   2.967   1.434   0.790 -0.8001 -1.6518 -1.9195
 3534SOL     OW10657   2.287   0.336   0.589  0.1975  0.6552 -0.1171
 3534SOL    HW110658   2.267   0.373   0.675 -0.5410  1.1175 -0.4768
 3534SOL    HW210659   2.379   0.357   0.574  0.1604  1.1199  0.2939
 3535SOL     OW10660   2.707   3.905   1.963  0.5923 -0.0332 -0.4758
 3535SOL    HW110661   2.789   3.900   1.913 -0.0114  1.5487 -1.7034
 3535SOL    HW210662   2.649   3.842   1.922  0.7056 -0.0914 -0.5472
 3536SOL     OW10663   3.000   1.370   1.701  0.2863  0.2175 -0.3574
 3536SOL    HW110664   2.925   1.315   1.721 -1.0528  1.8891 -0.6277
 3536SOL    HW210665   3.019   1.416   1.783 -0.7469  1.8209 -0.9811
 3537SOL     OW10666   0.408   4.850   2.037 -0.0749  0.2798  0.3015
 3537SOL    HW110667   0.497   4.884   2.030 -0.1035  0.3269  0.1678
 3537SOL    HW210668   0.386   4.821   1.949 -0.4165  0.8288  0.2032
 3538SOL     OW10669   2.481   0.182   1.512  0.3617 -0.0639  0.1695
 3538SOL    HW110670   2.515   0.264   1.475  2.6181 -0.0230  2.0760
 3538SOL    HW210671   2.387   0.197   1.522  0.3350  1.3528 -1.7553
 3539SOL     OW10672   4.366   3.121   2.506 -0.1392  0.5457  0.0560
 3539SOL    HW110673   4.389   3.041   2.552  0.6414  1.2590  0.9509
 3539SOL    HW210674   4.429   3.186   2.537  0.9712  0.8839 -2.6838
 3540SOL     OW10675   4.317   2.018   1.950  0.3087 -0.1954  0.1062
 3540SOL    HW110676   4.343   1.939   1.996  3.7201 -0.2702 -1.6808
 3540SOL    HW210677   4.380   2.085   1.978 -0.0791  0.8291 -1.3140
 3541SOL     OW10678   0.208   1.058   0.012  0.1205 -0.6222  0.2931
 3541SOL    HW110679   0.164   1.004   0.077 -0.8917  1.4708  1.4525
 3541SOL    HW210680   0.138   1.111  -0.026  0.7307 -1.5454 -2.3342
 3542SOL     OW10681   2.898   1.934   2.737  0.0184  0.3284  0.2848
 3542SOL    HW110682   2.816   1.928   2.786 -0.2558 -0.3662 -0.2458
 3542SOL    HW210683   2.889   2.014   2.685 -0.5000  0.0421 -0.0768
 3543SOL     OW10684   1.112   2.390   2.493 -0.3045  0.1258 -0.1923
 3543SOL    HW110685   1.171   2.362   2.423 -0.8416 -0.7892 -0.2991
 3543SOL    HW210686   1.126   2.327   2.564  0.3056  1.0993  0.5814
 3544SOL     OW10687   1.642   2.383   2.597  0.5336  0.0553  0.2340
 3544SOL    HW110688   1.626   2.358   2.506  0.1834  1.9813 -0.2951
 3544SOL    HW210689   1.715   2.328   2.625  0.3141 -0.9323 -1.0461
 3545SOL     OW10690   3.571   0.772   1.076 -0.0044  0.0303  0.3699
 3545SOL    HW110691   3.627   0.772   1.154 -0.1291  2.5308  0.5369
 3545SOL    HW210692   3.484   0.793   1.109  0.0426  1.6692 -0.4379
 3546SOL     OW10693   0.229   0.296   4.928 -0.3154  0.0008  0.4022
 3546SOL    HW110694   0.294   0.227   4.928 -1.1884 -0.8450  0.2096
 3546SOL    HW210695   0.183   0.286   5.012 -2.9130 -2.1057 -1.1055
 3547SOL     OW10696   4.803   2.221   3.629  0.0126  0.1087 -0.6721
 3547SOL    HW110697   4.772   2.144   3.580  0.0101  0.4547 -1.2235
 3547SOL    HW210698   4.759   2.214   3.714  0.0542 -0.5265 -0.6962
 3548SOL     OW10699   4.002   0.972   3.236  0.0084  0.4463  0.0771
 3548SOL    HW110700   3.947   0.992   3.311  0.8845  2.3131  0.2716
 3548SOL    HW210701   3.950   0.995   3.160  0.2790  1.6236  0.2396
 3549SOL     OW10702   3.247   2.873   2.605  0.3149 -0.2202  0.6358
 3549SOL    HW110703   3.298   2.833   2.675 -0.7237 -0.1054  1.4988
 3549SOL    HW210704   3.188   2.933   2.650  1.8404  2.3857 -0.6043
 3550SOL     OW10705   1.491   3.579   2.718 -0.2705  0.0023  0.6016
 3550SOL    HW110706   1.425   3.519   2.753 -1.4390  0.1906 -1.1260
 3550SOL    HW210707   1.566   3.570   2.777 -0.2189 -3.4850  0.2327
 3551SOL     OW10708   4.101   1.795   4.005  0.2173  0.4294  0.5223
 3551SOL    HW110709   4.124   1.797   3.912  0.6976  0.7209  0.6482
 3551SOL    HW210710   4.019   1.744   4.008 -0.0372  0.7916 -0.1063
 3552SOL     OW10711   4.630   0.512   1.714 -0.3929 -0.2360 -0.6304
 3552SOL    HW110712   4.586   0.543   1.792 -0.3485  1.1489 -1.1284
 3552SOL    HW210713   4.628   0.416   1.721 -0.7049 -0.1349  0.8650
 3553SOL     OW10714   3.008   3.795   4.043 -0.2421 -0.3450  0.4931
 3553SOL    HW110715   3.021   3.716   3.991 -2.4415  0.0698 -0.8170
 3553SOL    HW210716   3.079   3.853   4.016 -0.5321 -0.6593 -1.0577
 3554SOL     OW10717   3.133   2.120   3.410 -0.4257 -0.6692  0.2305
 3554SOL    HW110718   3.042   2.151   3.401 -0.7708 -1.7270 -0.0238
 3554SOL    HW210719   3.165   2.115   3.320  0.4649  1.2871  0.3798
 3555SOL     OW10720   4.023   0.138   4.438  0.0354  0.2697  0.6026
 3555SOL    HW110721   4.098   0.147   4.497 -0.8489  0.7794  1.6688
 3555SOL    HW210722   3.959   0.201   4.470 -1.0041 -0.4190 -0.0600
 3556SOL     OW10723   0.096   1.871   1.670 -0.2542  0.4540 -0.0725
 3556SOL    HW110724   0.135   1.946   1.713  0.8489 -0.1597  0.0223
 3556SOL    HW210725   0.002   1.880   1.686 -0.0226  1.1741  0.9260
 3557SOL     OW10726   0.750   2.555   0.921  0.6282 -0.0685 -0.0747
 3557SOL    HW110727   0.814   2.495   0.956  2.7050  1.7433 -0.5288
 3557SOL    HW210728   0.770   2.561   0.828  0.2255  1.0012 -0.1193
 3558SOL     OW10729   3.942   0.681   2.995  0.7211 -0.1084 -0.0648
 3558SOL    HW110730   3.961   0.587   2.997  0.5220 -0.1661 -0.6911
 3558SOL    HW210731   3.860   0.690   3.043  0.8823 -0.2150  0.2348
 3559SOL     OW10732   2.177   0.306   2.836  0.5251  0.9299 -0.2426
 3559SOL    HW110733   2.265   0.270   2.831 -0.1405 -0.6782 -1.0029
 3559SOL    HW210734   2.125   0.253   2.776 -1.5149  0.1284  2.0178
 3560SOL     OW10735   1.835   1.967   1.991  0.1011 -0.0603  0.1263
 3560SOL    HW110736   1.838   1.888   2.044  0.5570 -0.3172 -0.2707
 3560SOL    HW210737   1.875   2.034   2.045 -1.0233  0.0997  0.7841
 3561SOL     OW10738   4.202   2.573   1.867  0.0625 -0.3462  0.3384
 3561SOL    HW110739   4.167   2.662   1.873  0.3378 -0.2733  1.0084
 3561SOL    HW210740   4.150   2.531   1.799 -1.2443 -0.2139  1.2143
 3562SOL     OW10741   4.867   2.388   0.073 -0.0300 -0.5457  0.1936
 3562SOL    HW110742   4.795   2.451   0.079  0.9791  0.5979  0.7366
 3562SOL    HW210743   4.895   2.392  -0.018  1.8248  1.9729  0.7334
 3563SOL     OW10744   4.098   0.525   3.941  0.0663  0.3198 -0.0243
 3563SOL    HW110745   4.053   0.578   3.875 -1.2463 -0.0875  0.5035
 3563SOL    HW210746   4.052   0.545   4.023  0.6781 -0.3222  0.4905
 3564SOL     OW10747   3.332   1.249   4.526  0.3725 -0.1822  0.2559
 3564SOL    HW110748   3.273   1.256   4.601 -0.3730  0.9189 -0.4098
 3564SOL    HW210749   3.351   1.155   4.519 -0.6821 -0.4602  0.9427
 3565SOL     OW10750   3.616   1.834   2.402  0.0587  0.1673 -0.0816
 3565SOL    HW110751   3.691   1.885   2.371  0.4322  0.0531  0.6145
 3565SOL    HW210752   3.616   1.756   2.347 -0.1197  0.6028 -0.7100
 3566SOL     OW10753   1.753   1.491   3.380  0.4326 -0.8638 -0.1316
 3566SOL    HW110754   1.737   1.580   3.410  0.0775 -1.3862  1.3132
 3566SOL    HW210755   1.670   1.465   3.338 -0.0063 -1.0403  0.8283
 3567SOL     OW10756   2.491   4.886   1.560  0.0072 -0.5998  0.2696
 3567SOL    HW110757   2.556   4.875   1.629  1.4626 -0.2246 -1.0095
 3567SOL    HW210758   2.479   4.980   1.552  1.8637 -0.4823 -1.7704
 3568SOL     OW10759   2.606   3.757   3.538 -0.0862 -0.1864 -0.5189
 3568SOL    HW110760   2.639   3.668   3.533  1.0008  0.1631  0.0722
 3568SOL    HW210761   2.528   3.751   3.593  0.0114 -0.7578 -0.4432
 3569SOL     OW10762   1.033   1.133   2.287  0.2507 -0.6734 -0.4536
 3569SOL    HW110763   1.126   1.141   2.267  0.1145  0.9879 -0.5770
 3569SOL    HW210764   1.030   1.080   2.367  1.5188  1.3509  1.0450
 3570SOL     OW10765   1.175   2.838   1.377  0.8920 -0.4843 -0.1809
 3570SOL    HW110766   1.250   2.812   1.324  1.5890  1.9298 -0.4985
 3570SOL    HW210767   1.204   2.917   1.422 -0.7142 -0.7846  1.4993
 3571SOL     OW10768   2.309   0.104   0.753 -0.6663  0.0055  0.2284
 3571SOL    HW110769   2.284   0.110   0.845 -0.2528 -0.5779  0.3824
 3571SOL    HW210770   2.239   0.149   0.706 -1.9988 -1.5460  0.6571
 3572SOL     OW10771   3.890   2.948   0.193  0.2034  0.4471 -0.3144
 3572SOL    HW110772   3.869   3.026   0.244 -1.9825 -0.3921  0.1787
 3572SOL    HW210773   3.923   2.982   0.110 -0.0211  1.8716  0.1576
 3573SOL     OW10774   3.216   4.004   1.078  0.4694  0.3643 -0.5020
 3573SOL    HW110775   3.256   3.980   1.162 -1.1797  0.6687  0.4020
 3573SOL    HW210776   3.124   3.980   1.088  0.1999  0.6483 -2.1447
 3574SOL     OW10777   4.641   2.028   4.715 -0.6436 -0.2319 -0.0337
 3574SOL    HW110778   4.641   2.058   4.806 -0.3520  1.6626 -0.6046
 3574SOL    HW210779   4.643   2.109   4.663  0.1622 -1.2620 -1.7178
 3575SOL     OW10780   3.371   3.222   1.063  0.4487 -0.6737  0.2098
 3575SOL    HW110781   3.383   3.316   1.072  1.8038 -0.8120  0.0790
 3575SOL    HW210782   3.425   3.184   1.133 -0.6119 -1.3392  0.6959
 3576SOL     OW10783   1.486   0.858   3.663 -0.5083  0.6909  0.7200
 3576SOL    HW110784   1.449   0.769   3.655 -1.9631  1.4246 -2.5082
 3576SOL    HW210785   1.467   0.883   3.753 -0.1250 -2.2030  1.7273
 3577SOL     OW10786   3.923   2.300   4.011 -0.7838  0.0070 -0.5221
 3577SOL    HW110787   3.924   2.361   3.937 -1.2225 -1.5969 -1.9076
 3577SOL    HW210788   3.830   2.286   4.029 -0.7316  1.8717  1.6946
 3578SOL     OW10789   4.646   4.275   1.751  0.0306 -0.3936 -0.1644
 3578SOL    HW110790   4.616   4.190   1.784  0.4370  0.2445  2.0068
 3578SOL    HW210791   4.568   4.315   1.713 -0.5786 -1.0407  0.3847
 3579SOL     OW10792   0.725   1.412   3.954 -0.3715  0.4814 -0.4473
 3579SOL    HW110793   0.657   1.446   3.896  1.0497  2.9067 -0.8452
 3579SOL    HW210794   0.807   1.433   3.910  0.7290  1.2796  1.8181
 3580SOL     OW10795   0.679   0.950   1.732  0.6301 -0.2542  0.7541
 3580SOL    HW110796   0.770   0.980   1.737  1.0086 -1.0133 -0.9142
 3580SOL    HW210797   0.683   0.871   1.678 -1.2189  0.5788 -0.7246
 3581SOL     OW10798   0.143   3.363   3.237 -0.0376  0.2694  0.1433
 3581SOL    HW110799   0.052   3.351   3.263 -0.6462 -0.3725 -2.0813
 3581SOL    HW210800   0.158   3.457   3.241 -0.2815  0.2563  2.0331
 3582SOL     OW10801   4.707   1.599   0.260 -0.0465  0.0628 -0.2649
 3582SOL    HW110802   4.643   1.570   0.195  0.1666  0.0957 -0.4919
 3582SOL    HW210803   4.683   1.690   0.279  0.1664  0.1995 -0.6398
 3583SOL     OW10804   0.257   1.149   4.184  0.2664  0.1314 -0.4052
 3583SOL    HW110805   0.271   1.116   4.095  1.3585 -0.5796  0.0080
 3583SOL    HW210806   0.263   1.072   4.240 -2.3959  0.2447  0.1605
 3584SOL     OW10807   3.453   4.179   2.219 -0.1604 -0.7396  0.1009
 3584SOL    HW110808   3.399   4.254   2.195  2.1084  0.1472 -2.9510
 3584SOL    HW210809   3.433   4.113   2.153  0.4404 -1.4612  0.6225
 3585SOL     OW10810   1.546   0.032   4.229 -0.3784 -0.6400  0.5687
 3585SOL    HW110811   1.451   0.019   4.233 -0.1967 -3.2243 -1.0895
 3585SOL    HW210812   1.580  -0.021   4.300 -0.0894 -2.4706 -0.8428
 3586SOL     OW10813   1.558   3.506   1.922 -0.7854  0.1346  0.1201
 3586SOL    HW110814   1.572   3.445   1.995  2.9409 -1.2264 -1.4700
 3586SOL    HW210815   1.588   3.590   1.955 -0.6524 -0.1177  0.6566
 3587SOL     OW10816   3.689   2.755   0.576 -0.5840  0.4186 -0.2415
 3587SOL    HW110817   3.745   2.827   0.606 -0.3684  0.4730 -0.7503
 3587SOL    HW210818   3.745   2.706   0.515 -1.7044  1.6643 -2.3841
 3588SOL     OW10819   2.044   0.561   2.863 -0.0502 -0.5952  0.1649
 3588SOL    HW110820   2.084   0.475   2.852  0.0946 -0.4981 -0.0693
 3588SOL    HW210821   2.088   0.599   2.939 -0.5650 -0.9849  0.6734
 3589SOL     OW10822   4.319   2.254   0.445 -0.1873 -0.0070  0.0149
 3589SOL    HW110823   4.392   2.312   0.468 -1.5852  1.7397  0.2755
 3589SOL    HW210824   4.345   2.213   0.363  0.9784  0.7657 -0.0174
 3590SOL     OW10825   4.919   1.736   3.250 -0.4089  0.2956  0.3530
 3590SOL    HW110826   4.979   1.692   3.189  0.1529 -0.0307  1.1203
 3590SOL    HW210827   4.927   1.686   3.331  0.6284  2.0972  1.4095
 3591SOL     OW10828   2.342   2.777   3.340  0.2573 -0.4685 -0.5291
 3591SOL    HW110829   2.425   2.821   3.323 -0.4948  0.8265 -0.9653
 3591SOL    HW210830   2.342   2.760   3.435  1.1483 -0.7721 -0.5811
 3592SOL     OW10831   2.744   1.049   3.457 -0.2510  0.1267 -0.0267
 3592SOL    HW110832   2.746   0.983   3.389  0.9574 -1.3367  1.3448
 3592SOL    HW210833   2.804   1.118   3.427  0.8523 -0.8564 -0.1330
 3593SOL     OW10834   2.514   1.494   1.289 -0.7147 -0.2901  0.8254
 3593SOL    HW110835   2.581   1.436   1.253 -0.0516  0.7676  0.3056
 3593SOL    HW210836   2.456   1.436   1.338 -1.0415 -1.6630 -1.0508
 3594SOL     OW10837   4.614   4.468   4.422 -0.9043 -0.1380  0.0226
 3594SOL    HW110838   4.581   4.428   4.503 -0.3407  1.9950  1.3582
 3594SOL    HW210839   4.707   4.446   4.420 -1.0360 -0.6957 -0.3944
 3595SOL     OW10840   2.497   0.085   4.072  0.3681  0.7666  0.3588
 3595SOL    HW110841   2.485   0.171   4.032 -1.0849 -0.7629 -2.8541
 3595SOL    HW210842   2.557   0.039   4.013 -1.4318 -1.4419  0.1188
 3596SOL     OW10843   2.043   0.207   3.076  0.2361  0.1988  0.8680
 3596SOL    HW110844   1.949   0.224   3.074  0.0576 -0.7969 -0.1737
 3596SOL    HW210845   2.074   0.233   2.990  0.6443 -0.8968  0.6665
 3597SOL     OW10846   2.780   3.972   2.924 -0.0761  0.2450  0.1908
 3597SOL    HW110847   2.707   3.970   2.986 -0.2437  1.1239  0.0291
 3597SOL    HW210848   2.813   4.062   2.928  1.5822 -0.3545  0.9367
 3598SOL     OW10849   0.212   0.037   4.758 -0.1339 -0.0362 -0.0062
 3598SOL    HW110850   0.223   0.029   4.663 -0.6330 -1.0279 -0.0029
 3598SOL    HW210851   0.299   0.022   4.794 -0.2594 -1.5492 -0.2471
 3599SOL     OW10852   0.503   0.154   4.001  0.7478 -1.0013  0.0833
 3599SOL    HW110853   0.451   0.074   3.991  1.1178 -1.1163 -1.0978
 3599SOL    HW210854   0.509   0.190   3.912  2.8313 -1.0794  0.1386
 3600SOL     OW10855   2.785   4.828   2.991 -0.7274  0.1809  0.4136
 3600SOL    HW110856   2.789   4.800   3.082 -1.0123  1.2647  0.7709
 3600SOL    HW210857   2.868   4.799   2.953 -0.0635  0.7948  1.3426
 3601SOL     OW10858   1.872   2.768   2.716 -0.1026  0.8800 -0.0096
 3601SOL    HW110859   1.951   2.716   2.705 -0.0159 -0.3927  4.6576
 3601SOL    HW210860   1.800   2.705   2.705 -0.1543  0.5923  1.7876
 3602SOL     OW10861   1.260   0.407   4.470 -0.1593  0.1770 -0.1834
 3602SOL    HW110862   1.265   0.404   4.374  0.4165  2.8131 -0.3239
 3602SOL    HW210863   1.346   0.378   4.500 -0.8096 -2.0839 -0.3362
 3603SOL     OW10864   4.866   0.698   2.096 -0.4322  0.3189  0.4739
 3603SOL    HW110865   4.889   0.786   2.125  1.3827  0.2939 -0.7109
 3603SOL    HW210866   4.792   0.710   2.037 -0.9063  0.9157  1.1816
 3604SOL     OW10867   4.102   2.818   1.954 -0.1964  0.4087 -0.3771
 3604SOL    HW110868   4.158   2.859   1.888 -0.3257 -1.0356 -1.4140
 3604SOL    HW210869   4.014   2.849   1.934 -0.3022 -0.4001 -1.1927
 3605SOL     OW10870   3.586   2.272   2.025  0.0981 -0.2310 -0.7530
 3605SOL    HW110871   3.584   2.306   2.115  2.1161  1.5587 -1.3072
 3605SOL    HW210872   3.581   2.177   2.036 -1.6132 -0.0097  1.1116
 3606SOL     OW10873   3.498   4.141   4.573  0.2455  0.0573  0.4869
 3606SOL    HW110874   3.514   4.059   4.619  1.9417 -1.5117 -2.5216
 3606SOL    HW210875   3.552   4.206   4.618 -0.7737 -0.5376  2.6502
 3607SOL     OW10876   2.352   1.135   1.228 -0.0191  0.7735 -0.2797
 3607SOL    HW110877   2.400   1.165   1.306  0.8828 -0.3399 -0.3914
 3607SOL    HW210878   2.330   1.044   1.247  2.2823 -0.2940 -2.2352
 3608SOL     OW10879   0.859   2.427   0.471  0.1607 -0.1438 -0.1056
 3608SOL    HW110880   0.781   2.406   0.523  0.5490 -0.5016  0.3424
 3608SOL    HW210881   0.854   2.521   0.458  1.3484  0.4226  2.7676
 3609SOL     OW10882   3.386   4.573   1.469  0.6089 -0.2034 -0.0295
 3609SOL    HW110883   3.319   4.583   1.536 -2.9134 -0.3439 -3.2052
 3609SOL    HW210884   3.425   4.488   1.487  0.0146 -0.1114  1.9653
 3610SOL     OW10885   1.254   3.950   4.388  0.3441  0.1946  0.6300
 3610SOL    HW110886   1.184   3.886   4.400  0.2921  0.2974  0.8815
 3610SOL    HW210887   1.320   3.926   4.454  1.3023 -0.9106 -0.6611
 3611SOL     OW10888   4.795   4.860   4.199  0.3491 -0.6416  0.1085
 3611SOL    HW110889   4.835   4.939   4.162 -0.4458 -0.2579  0.0628
 3611SOL    HW210890   4.702   4.870   4.182  0.1825 -1.3363  0.5955
 3612SOL     OW10891   4.659   2.828   0.087 -0.0879  0.4101 -0.5374
 3612SOL    HW110892   4.565   2.831   0.066  0.0033  1.2424 -0.8649
 3612SOL    HW210893   4.695   2.763   0.027 -0.2331  1.0669 -1.3543
 3613SOL     OW10894   0.686   4.087   3.809 -0.1552  0.3244  0.2087
 3613SOL    HW110895   0.594   4.075   3.782  0.3779  0.2909 -1.7515
 3613SOL    HW210896   0.710   4.173   3.775  0.3666  0.6075  1.2685
 3614SOL     OW10897   4.927   0.050   0.977  0.2669  0.7098 -0.3930
 3614SOL    HW110898   4.983   0.120   0.944  0.1985  2.2740  2.5213
 3614SOL    HW210899   4.867   0.093   1.038 -1.4073 -1.5563 -0.2950
 3615SOL     OW10900   4.280   1.569   3.287 -0.1614  0.7565  0.6423
 3615SOL    HW110901   4.317   1.657   3.283  1.2532  0.1485 -0.2365
 3615SOL    HW210902   4.195   1.578   3.243  0.3269  1.5254 -0.1912
 3616SOL     OW10903   2.109   1.371   0.264 -0.6389  0.2455 -0.3314
 3616SOL    HW110904   2.099   1.296   0.206  2.8849 -0.6655  0.0223
 3616SOL    HW210905   2.120   1.446   0.205  1.1944 -0.4113 -0.8936
 3617SOL     OW10906   1.092   3.669   1.847  0.0825 -0.4604  0.2170
 3617SOL    HW110907   1.056   3.755   1.869 -1.1645 -1.3536  1.9041
 3617SOL    HW210908   1.161   3.655   1.912  0.6482 -0.5199 -0.3879
 3618SOL     OW10909   2.885   1.398   4.751 -0.2795 -0.1875  0.5159
 3618SOL    HW110910   2.810   1.429   4.700  0.3800  0.3798 -0.1393
 3618SOL    HW210911   2.903   1.468   4.813 -0.4591 -0.4382  0.8506
 3619SOL     OW10912   3.089   2.774   3.038  0.3527  0.2157 -0.2916
 3619SOL    HW110913   3.107   2.814   2.954 -1.6699  0.5688 -0.6110
 3619SOL    HW210914   3.067   2.847   3.096  1.1650 -0.0708  0.4107
 3620SOL     OW10915   3.708   4.258   1.039 -0.2257 -0.0887  0.1223
 3620SOL    HW110916   3.651   4.302   0.976 -0.4516 -1.4856 -0.6872
 3620SOL    HW210917   3.795   4.262   0.999  0.5215  2.8064  1.7464
 3621SOL     OW10918   3.536   4.436   3.324 -0.1041  0.5597  0.6371
 3621SOL    HW110919   3.580   4.426   3.240  1.0152 -2.0465  1.4406
 3621SOL    HW210920   3.604   4.465   3.384 -0.7282  1.6380  0.8680
 3622SOL     OW10921   1.488   4.836   1.308  0.2172 -0.0628  0.4378
 3622SOL    HW110922   1.541   4.868   1.382  1.1556 -1.4461  0.3986
 3622SOL    HW210923   1.510   4.895   1.236  2.1263 -0.8768  0.2909
 3623SOL     OW10924   3.941   4.305   4.634 -0.2623 -0.0356 -0.1122
 3623SOL    HW110925   4.025   4.350   4.631  0.4479 -1.2037  1.1170
 3623SOL    HW210926   3.948   4.245   4.708 -2.2735 -0.0097  0.1681
 3624SOL     OW10927   3.180   2.703   4.433 -0.0987 -0.7547 -0.0044
 3624SOL    HW110928   3.101   2.731   4.480  0.4731  0.9283 -0.0063
 3624SOL    HW210929   3.147   2.670   4.349 -0.7446  0.8161 -0.3973
 3625SOL     OW10930   4.571   1.547   5.002 -0.6214 -0.7000 -0.5115
 3625SOL    HW110931   4.588   1.501   4.920 -0.6224  1.9682 -2.1020
 3625SOL    HW210932   4.517   1.622   4.977 -2.1912 -0.7801  2.2267
 3626SOL     OW10933   3.052   4.586   3.331  0.1572  0.5382 -0.4116
 3626SOL    HW110934   2.958   4.575   3.315 -0.1862  2.2398  0.1448
 3626SOL    HW210935   3.064   4.559   3.423  0.3881 -0.4496 -0.7184
 3627SOL     OW10936   2.376   4.263   4.111  0.5628 -0.2170 -0.3809
 3627SOL    HW110937   2.425   4.337   4.147  1.9670 -2.1732  2.0598
 3627SOL    HW210938   2.295   4.302   4.078  0.7523  2.2652  1.7663
 3628SOL     OW10939   0.477   4.895   1.383  0.1344  0.8944  0.4486
 3628SOL    HW110940   0.419   4.883   1.308  0.1838  2.2535  0.1665
 3628SOL    HW210941   0.543   4.826   1.374 -1.4672 -0.7785  0.8492
 3629SOL     OW10942   4.454   0.940   2.068 -0.0726 -0.0651  0.1942
 3629SOL    HW110943   4.471   1.033   2.085 -1.1146  0.3240 -0.7584
 3629SOL    HW210944   4.495   0.924   1.983  0.3672 -0.5697  0.4937
 3630SOL     OW10945   3.208   1.515   0.189  0.2243 -0.6738  0.4422
 3630SOL    HW110946   3.268   1.527   0.264  0.0491  0.9091  0.3796
 3630SOL    HW210947   3.263   1.478   0.120  0.8186 -0.5223  0.8224
 3631SOL     OW10948   4.741   1.509   0.676 -0.3080 -0.2969 -0.7406
 3631SOL    HW110949   4.767   1.591   0.717  1.1765 -0.3428 -1.4930
 3631SOL    HW210950   4.771   1.441   0.737 -1.4252 -0.3039 -0.1766
 3632SOL     OW10951   4.247   4.217   1.976 -0.4240  0.4971  0.1176
 3632SOL    HW110952   4.278   4.212   1.886  2.3526  1.8277  0.8746
 3632SOL    HW210953   4.233   4.126   2.002  1.1348 -0.0814 -0.9332
 3633SOL     OW10954   2.417   1.349   4.744  0.3579  0.0069  0.0929
 3633SOL    HW110955   2.440   1.297   4.667 -1.4020 -1.1891  0.3168
 3633SOL    HW210956   2.354   1.413   4.713 -0.7935 -0.8394  0.5735
 3634SOL     OW10957   1.103   2.556   3.136 -0.3357 -0.1540 -0.4378
 3634SOL    HW110958   1.086   2.650   3.130  1.7681  0.2900 -0.0468
 3634SOL    HW210959   1.194   2.549   3.162 -1.3195 -2.2893  3.1507
 3635SOL     OW10960   2.586   0.711   1.134  0.7930  0.3486 -0.6809
 3635SOL    HW110961   2.532   0.645   1.177  1.8338  1.3353  2.4645
 3635SOL    HW210962   2.636   0.663   1.069  0.5355 -1.7094  0.5422
 3636SOL     OW10963   4.731   1.282   1.948 -0.0108 -0.1375 -0.2150
 3636SOL    HW110964   4.808   1.284   2.004  0.1248  1.7914 -0.3872
 3636SOL    HW210965   4.766   1.293   1.859 -0.2657 -2.5513 -0.6734
 3637SOL     OW10966   2.391   3.405   0.394 -0.7980 -0.1135 -0.4102
 3637SOL    HW110967   2.447   3.472   0.432  0.0002 -1.3288  0.6086
 3637SOL    HW210968   2.389   3.426   0.300  0.7641  0.3907 -0.3538
 3638SOL     OW10969   0.175   3.631   1.091 -0.0506 -0.1822 -0.1928
 3638SOL    HW110970   0.098   3.650   1.037 -0.6054  1.0269  0.9761
 3638SOL    HW210971   0.154   3.547   1.133  0.4428 -1.2055 -1.9011
 3639SOL     OW10972   4.639   1.119   3.357  0.3343 -0.2101  0.2475
 3639SOL    HW110973   4.579   1.053   3.392 -0.3252  0.2412 -0.0278
 3639SOL    HW210974   4.589   1.163   3.289  0.8759  0.3861  0.2321
 3640SOL     OW10975   4.555   2.192   3.805  0.3013 -0.0687  0.0664
 3640SOL    HW110976   4.506   2.199   3.723  1.2245 -1.7336 -0.6952
 3640SOL    HW210977   4.590   2.279   3.821 -0.5774  0.4684 -0.8806
 3641SOL     OW10978   1.669   0.785   1.079  0.3269  0.6130  0.2537
 3641SOL    HW110979   1.578   0.804   1.058  0.6837  0.7571 -1.2420
 3641SOL    HW210980   1.667   0.695   1.112 -0.2263  0.2403 -0.7514
 3642SOL     OW10981   1.645   3.163   0.456  0.2910  0.1186 -1.0866
 3642SOL    HW110982   1.616   3.233   0.397  0.0608 -0.4819 -1.6891
 3642SOL    HW210983   1.739   3.158   0.442 -0.1467 -2.3770 -4.0700
 3643SOL     OW10984   4.031   2.585   0.617  0.1765 -0.2776 -0.4940
 3643SOL    HW110985   4.008   2.501   0.654  1.6249 -0.9099 -0.9388
 3643SOL    HW210986   3.985   2.588   0.533  0.9210 -1.1033 -0.9509
 3644SOL     OW10987   3.221   1.559   3.422  0.1349  0.2170 -0.4675
 3644SOL    HW110988   3.311   1.560   3.454 -0.2182 -0.3784  0.6065
 3644SOL    HW210989   3.182   1.640   3.457  0.4334  0.8374 -1.5293
 3645SOL     OW10990   3.818   3.731   2.371 -0.2984  0.3100 -0.1464
 3645SOL    HW110991   3.797   3.639   2.383  0.3406  0.1373 -0.3354
 3645SOL    HW210992   3.733   3.775   2.370 -0.7470 -0.5132 -2.2092
 3646SOL     OW10993   2.545   1.007   3.913 -0.6091  0.2599  0.1923
 3646SOL    HW110994   2.569   1.024   3.822  2.0377  3.0372  1.2585
 3646SOL    HW210995   2.565   0.914   3.926  0.5862  0.2190 -1.6091
 3647SOL     OW10996   4.265   4.330   1.161 -0.0861  0.5291 -0.0103
 3647SOL    HW110997   4.208   4.406   1.156 -1.8479 -0.7557 -0.1822
 3647SOL    HW210998   4.339   4.359   1.215 -0.9124  2.2086  0.2783
 3648SOL     OW10999   3.410   3.429   2.039 -0.1268  0.1179 -0.2076
 3648SOL    HW111000   3.468   3.358   2.013 -0.3535 -0.0734 -0.1920
 3648SOL    HW211001   3.420   3.495   1.971  1.1144  0.6565  0.4744
 3649SOL     OW11002   2.480   1.910   0.086  0.1929  0.7263  0.0956
 3649SOL    HW111003   2.434   1.896   0.169 -2.3663  0.1270 -1.3120
 3649SOL    HW211004   2.508   2.001   0.089  0.0226  0.7588  1.5468
 3650SOL     OW11005   4.906   4.620   3.280 -0.1673 -0.6513  0.1038
 3650SOL    HW111006   4.954   4.682   3.334 -0.3132 -0.4902  0.0485
 3650SOL    HW211007   4.924   4.534   3.319  0.2522 -0.6008  0.0166
 3651SOL     OW11008   2.879   2.971   0.027  0.6560  0.0220  0.2844
 3651SOL    HW111009   2.829   2.916   0.087 -0.1637 -0.8534 -1.1375
 3651SOL    HW211010   2.962   2.986   0.072 -0.3567  0.3879  2.1172
 3652SOL     OW11011   2.088   2.511   2.033  0.2486  0.2266 -0.1334
 3652SOL    HW111012   2.027   2.485   2.103 -1.2787 -1.3506 -1.9226
 3652SOL    HW211013   2.168   2.463   2.053  0.3497  0.9659  1.3273
 3653SOL     OW11014   3.289   4.636   1.910 -0.9629  0.1429  0.2273
 3653SOL    HW111015   3.375   4.639   1.953 -1.5344  0.9291  1.3511
 3653SOL    HW211016   3.254   4.550   1.933 -1.3587  0.6434  1.5672
 3654SOL     OW11017   4.589   0.363   2.508  0.8795  0.8733 -0.4437
 3654SOL    HW111018   4.522   0.388   2.571 -1.8293 -0.8836 -2.4619
 3654SOL    HW211019   4.591   0.436   2.445  1.3008  1.1531 -0.1205
 3655SOL     OW11020   3.438   1.314   1.137  0.5011  0.3429 -0.4003
 3655SOL    HW111021   3.372   1.353   1.194  2.3260  1.3894  1.0909
 3655SOL    HW211022   3.460   1.383   1.075  1.6454  0.7461  0.4195
 3656SOL     OW11023   2.905   3.970   0.915  0.4614  0.4192 -0.0538
 3656SOL    HW111024   2.829   4.005   0.961  0.8710  0.1276  0.8630
 3656SOL    HW211025   2.892   3.875   0.917 -0.5182  0.4292 -2.3020
 3657SOL     OW11026   4.637   3.872   2.716 -0.3534  0.4086  0.2130
 3657SOL    HW111027   4.592   3.875   2.631 -1.6994 -0.1883  0.8718
 3657SOL    HW211028   4.602   3.946   2.765 -0.8621 -0.2092  0.8220
 3658SOL     OW11029   0.261   0.122   3.076 -0.1476  0.5093 -0.6915
 3658SOL    HW111030   0.335   0.172   3.108 -0.5713  0.1168  0.9714
 3658SOL    HW211031   0.290   0.031   3.079  0.3409  0.5156 -2.9553
 3659SOL     OW11032   0.337   2.571   2.426 -0.0916  0.2902  0.7229
 3659SOL    HW111033   0.305   2.536   2.510  0.3765 -0.7979  0.4691
 3659SOL    HW211034   0.383   2.497   2.386 -2.0688  0.1350 -1.4413
 3660SOL     OW11035   4.353   2.701   0.486  0.3879  0.0502  1.2276
 3660SOL    HW111036   4.426   2.764   0.484  0.7158 -0.3398  0.6720
 3660SOL    HW211037   4.285   2.742   0.434  1.2982 -0.8748 -0.7760
 3661SOL     OW11038   4.952   4.789   0.845 -0.4427 -0.2941 -0.1030
 3661SOL    HW111039   4.935   4.855   0.912 -2.2257 -0.8042 -0.0055
 3661SOL    HW211040   4.953   4.838   0.762 -0.8300 -0.0112  0.0572
 3662SOL     OW11041   1.352   3.707   0.349 -0.1181  0.2438  0.4809
 3662SOL    HW111042   1.361   3.795   0.385  0.1185 -0.6092  2.6813
 3662SOL    HW211043   1.424   3.700   0.285 -1.5484  2.3677 -1.5219
 3663SOL     OW11044   3.932   1.078   1.567  0.1100 -0.5942 -0.4194
 3663SOL    HW111045   3.995   1.122   1.623 -0.8715 -0.3260  0.5126
 3663SOL    HW211046   3.890   1.148   1.518  2.2840 -0.9336 -3.0470
 3664SOL     OW11047   4.822   0.991   0.887 -0.0588 -0.7570 -0.5715
 3664SOL    HW111048   4.886   0.986   0.816  1.2218 -1.1320  0.5716
 3664SOL    HW211049   4.855   1.061   0.944 -0.3605 -1.3419  0.3339
 3665SOL     OW11050   1.793   1.237   4.439 -0.5040  0.0179  0.4272
 3665SOL    HW111051   1.807   1.161   4.494  0.6279 -0.0203  0.1248
 3665SOL    HW211052   1.880   1.278   4.433 -0.3832 -0.4366 -1.9489
 3666SOL     OW11053   3.307   4.471   2.480 -0.0872  0.5781 -0.1257
 3666SOL    HW111054   3.296   4.487   2.386 -1.3311  0.3465 -0.0358
 3666SOL    HW211055   3.248   4.398   2.499 -0.1322  0.8669  0.9151
 3667SOL     OW11056   2.070   4.779   1.429  0.5249  0.4548  0.3918
 3667SOL    HW111057   2.126   4.786   1.506  2.0564 -0.7815 -0.5701
 3667SOL    HW211058   2.130   4.781   1.355 -0.8494  0.6952 -0.7612
 3668SOL     OW11059   1.585   0.431   1.961  0.3875  0.0628  0.5575
 3668SOL    HW111060   1.613   0.489   1.890  1.2937  1.2523  1.8063
 3668SOL    HW211061   1.630   0.348   1.944  0.1270  0.1409 -0.5592
 3669SOL     OW11062   2.540   2.413   1.529 -0.0840  0.3617 -0.3415
 3669SOL    HW111063   2.465   2.471   1.534 -0.9328 -0.6980 -0.4290
 3669SOL    HW211064   2.583   2.436   1.446 -1.1350  0.0235 -1.0041
 3670SOL     OW11065   1.753   4.817   0.675 -0.0870  0.4024 -0.2153
 3670SOL    HW111066   1.692   4.788   0.743 -1.4654 -1.4697 -2.1409
 3670SOL    HW211067   1.834   4.771   0.694 -0.6898 -0.6954 -0.2290
 3671SOL     OW11068   0.682   1.733   3.872 -0.0846  0.7734 -0.2323
 3671SOL    HW111069   0.690   1.827   3.887 -0.3088  0.6090  1.0464
 3671SOL    HW211070   0.752   1.694   3.924  0.2590  0.2430 -1.0662
 3672SOL     OW11071   1.280   0.662   2.452 -0.0362 -0.5054 -0.3955
 3672SOL    HW111072   1.227   0.610   2.391  0.4951 -0.4932 -0.8820
 3672SOL    HW211073   1.367   0.665   2.411  0.5786 -1.2291  0.7709
 3673SOL     OW11074   2.281   4.294   0.363 -0.0529  0.2029  0.4215
 3673SOL    HW111075   2.347   4.226   0.373  0.2643  0.5449  0.6638
 3673SOL    HW211076   2.329   4.376   0.373 -0.4271  0.4667  0.1159
 3674SOL     OW11077   0.193   3.561   0.221  0.5009  0.1096 -0.1079
 3674SOL    HW111078   0.134   3.497   0.181  1.0335  0.7185 -2.0023
 3674SOL    HW211079   0.258   3.579   0.153  2.6050 -0.1555  1.7219
 3675SOL     OW11080   2.771   3.132   4.697 -0.0771 -0.3169  0.1884
 3675SOL    HW111081   2.739   3.041   4.703  0.6244 -0.5286  0.8709
 3675SOL    HW211082   2.787   3.145   4.603  0.4016 -1.1051  0.1537
 3676SOL     OW11083   0.747   3.282   4.168 -0.0990  0.2930  0.4897
 3676SOL    HW111084   0.834   3.266   4.132  0.0884  0.8640  0.6654
 3676SOL    HW211085   0.764   3.325   4.252 -0.5490  1.0610  0.1966
 3677SOL     OW11086   4.321   3.831   3.990  0.0606  0.4772 -0.6229
 3677SOL    HW111087   4.262   3.844   4.065 -0.3603  1.4106 -1.0974
 3677SOL    HW211088   4.264   3.799   3.920  0.7699 -2.3783 -0.0338
 3678SOL     OW11089   2.771   1.935   2.328 -0.4129  0.2879  0.1910
 3678SOL    HW111090   2.843   1.876   2.306 -0.6083  0.7701 -1.9488
 3678SOL    HW211091   2.809   1.998   2.389  0.0685 -1.3913  1.6960
 3679SOL     OW11092   2.947   0.786   0.976 -0.5940  0.6199  0.1020
 3679SOL    HW111093   2.917   0.707   1.021 -0.7490  0.1216 -0.8551
 3679SOL    HW211094   2.875   0.848   0.987 -0.0121  1.0352  1.8239
 3680SOL     OW11095   2.541   1.287   3.378 -0.0881  0.0196  0.0154
 3680SOL    HW111096   2.608   1.243   3.327 -1.0022 -0.8665 -0.4574
 3680SOL    HW211097   2.515   1.362   3.323  1.4642  1.2143  0.8208
 3681SOL     OW11098   3.133   4.917   0.431 -0.0094  0.0291  0.6530
 3681SOL    HW111099   3.163   4.951   0.516  1.9517  1.2114 -0.4413
 3681SOL    HW211100   3.213   4.904   0.381 -1.1292 -0.6752 -1.0284
 3682SOL     OW11101   1.532   3.014   3.040 -0.2367 -0.2377 -0.0208
 3682SOL    HW111102   1.539   2.953   2.966 -0.7435 -0.0822 -0.2037
 3682SOL    HW211103   1.489   2.964   3.109 -0.0184 -0.2977  0.0722
 3683SOL     OW11104   1.103   0.783   3.079 -0.0657  0.0632 -0.5702
 3683SOL    HW111105   1.010   0.764   3.090 -0.4279  1.4936 -0.9322
 3683SOL    HW211106   1.122   0.848   3.148  1.0453 -1.3195  0.4784
 3684SOL     OW11107   2.750   4.636   4.662  0.6160 -0.3287  0.2432
 3684SOL    HW111108   2.778   4.549   4.636  2.3601  0.6866 -1.5902
 3684SOL    HW211109   2.830   4.689   4.660 -0.4498  1.4120  0.8265
 3685SOL     OW11110   3.567   3.595   2.251 -0.6445  0.1849 -0.2322
 3685SOL    HW111111   3.533   3.529   2.190  0.4370 -1.7527  1.1383
 3685SOL    HW211112   3.643   3.553   2.292 -0.2471  2.0982  1.1338
 3686SOL     OW11113   3.967   0.419   3.011 -0.6191  0.3776 -0.1468
 3686SOL    HW111114   3.971   0.375   3.096 -1.4117  2.1963  0.8903
 3686SOL    HW211115   4.042   0.385   2.963  1.4655  1.2432  2.2796
 3687SOL     OW11116   1.436   2.022   0.332 -0.0643  0.1993  0.0313
 3687SOL    HW111117   1.428   1.942   0.281  1.4615 -0.0224  0.0767
 3687SOL    HW211118   1.400   2.001   0.418  1.2030 -0.7636  0.3514
 3688SOL     OW11119   1.654   4.746   0.040 -0.0666 -0.2193 -0.3565
 3688SOL    HW111120   1.700   4.756  -0.044  0.6516 -0.5484 -0.0110
 3688SOL    HW211121   1.709   4.791   0.103  0.1874 -1.2728  0.1948
 3689SOL     OW11122   1.221   1.503   2.491 -0.6881  0.1657 -0.3521
 3689SOL    HW111123   1.254   1.433   2.435 -2.2928 -0.5557 -0.4670
 3689SOL    HW211124   1.172   1.458   2.560 -1.9662  1.1460 -0.5670
 3690SOL     OW11125   3.252   4.846   2.468 -0.0746  0.3413  0.0686
 3690SOL    HW111126   3.280   4.775   2.526 -0.5690 -0.4964 -0.6972
 3690SOL    HW211127   3.268   4.813   2.380  0.0732  1.3506 -0.2966
 3691SOL     OW11128   1.727   1.432   4.605  0.4100  0.0428  0.7876
 3691SOL    HW111129   1.746   1.413   4.514  2.3142 -0.6521  1.2840
 3691SOL    HW211130   1.766   1.360   4.654  1.0222  1.2954  2.2506
 3692SOL     OW11131   1.805   0.517   4.341  0.2591  0.0357  0.0631
 3692SOL    HW111132   1.755   0.437   4.356  0.2837 -0.1412 -0.7629
 3692SOL    HW211133   1.849   0.503   4.257 -0.2892  1.1853 -0.4315
 3693SOL     OW11134   2.237   0.895   2.617  0.0585  0.1613 -0.3567
 3693SOL    HW111135   2.176   0.937   2.677  3.1535  1.1502  2.4333
 3693SOL    HW211136   2.244   0.805   2.649  0.4799  0.2267 -0.2514
 3694SOL     OW11137   3.483   1.207   3.333 -0.2735 -0.1172  0.0639
 3694SOL    HW111138   3.390   1.232   3.335 -0.2077  0.1416 -0.1051
 3694SOL    HW211139   3.530   1.290   3.329 -0.0223 -0.2337  0.5208
 3695SOL     OW11140   3.943   4.163   4.848 -0.0342  0.1876 -0.0411
 3695SOL    HW111141   3.933   4.071   4.872 -1.9089  0.1028 -0.8881
 3695SOL    HW211142   3.887   4.211   4.910  0.0538  0.6270 -0.2901
 3696SOL     OW11143   3.146   1.028   3.059 -0.3622  0.1380 -0.0305
 3696SOL    HW111144   3.069   1.028   3.116 -0.1236 -1.4920  0.3393
 3696SOL    HW211145   3.220   1.022   3.119  0.0268  0.8841 -0.4208
 3697SOL     OW11146   3.891   3.254   4.339  0.5755 -0.2425 -0.2181
 3697SOL    HW111147   3.866   3.236   4.429  0.8048  0.8969  0.0887
 3697SOL    HW211148   3.939   3.176   4.311 -0.7776 -1.2347  0.1417
 3698SOL     OW11149   1.172   4.581   2.854  0.0672  0.1822  0.1605
 3698SOL    HW111150   1.079   4.560   2.861 -0.3378  1.3511 -1.2894
 3698SOL    HW211151   1.212   4.504   2.814 -0.3858 -0.0527  0.1537
 3699SOL     OW11152   0.547   1.340   2.962 -0.3098 -0.6563  0.2054
 3699SOL    HW111153   0.570   1.247   2.966 -0.6912 -0.7147  2.1891
 3699SOL    HW211154   0.632   1.385   2.959 -0.0975 -1.0344  0.3947
 3700SOL     OW11155   1.729   0.347   3.641  0.3599 -0.7225 -0.3831
 3700SOL    HW111156   1.666   0.318   3.707  2.5599 -1.5924  1.5162
 3700SOL    HW211157   1.786   0.271   3.628  1.0882  0.0427 -1.9289
 3701SOL     OW11158   0.844   4.677   4.622  0.5386 -0.4748 -0.1323
 3701SOL    HW111159   0.894   4.597   4.606 -0.3707 -0.7438 -1.9644
 3701SOL    HW211160   0.781   4.680   4.550 -0.1882  1.3199  0.5243
 3702SOL     OW11161   0.278   3.513   1.722 -0.6120  0.6493  0.1553
 3702SOL    HW111162   0.217   3.450   1.682  0.4483  0.0094 -0.4993
 3702SOL    HW211163   0.345   3.528   1.655  0.6996  0.2734  1.3289
 3703SOL     OW11164   3.374   4.143   0.345 -0.1955  0.0964 -0.1717
 3703SOL    HW111165   3.333   4.215   0.392 -0.2328  0.2336 -0.4114
 3703SOL    HW211166   3.396   4.079   0.412 -2.3156 -0.7292 -0.2069
 3704SOL     OW11167   2.620   4.233   0.158  0.3177 -0.1526  0.6199
 3704SOL    HW111168   2.680   4.304   0.183 -0.9094  1.4271 -0.7055
 3704SOL    HW211169   2.619   4.236   0.063 -2.4466  0.4185  0.6060
 3705SOL     OW11170   3.580   0.152   3.082 -0.1889  0.1612  0.1332
 3705SOL    HW111171   3.613   0.191   3.164 -1.1608  0.7581  0.2525
 3705SOL    HW211172   3.492   0.189   3.072 -0.0333  0.1765 -1.2505
 3706SOL     OW11173   0.076   4.752   0.340 -0.0682 -0.4343  0.2731
 3706SOL    HW111174   0.124   4.678   0.377 -0.8627 -1.2768 -0.3389
 3706SOL    HW211175  -0.014   4.739   0.370 -0.3228 -0.0153 -0.3000
 3707SOL     OW11176   2.167   4.422   4.410  0.0232 -0.2439  0.4851
 3707SOL    HW111177   2.206   4.336   4.424  0.8146 -0.2586 -1.4831
 3707SOL    HW211178   2.236   4.485   4.433 -0.0901 -0.1775  0.6432
 3708SOL     OW11179   3.779   4.818   2.830 -0.1718 -0.0809  0.3895
 3708SOL    HW111180   3.834   4.768   2.891  0.3943  1.1298  0.9178
 3708SOL    HW211181   3.832   4.895   2.809 -0.0150 -0.8115 -2.2834
 3709SOL     OW11182   3.822   3.157   0.955 -0.5934  0.3329 -0.3267
 3709SOL    HW111183   3.802   3.088   1.018  0.7655  0.6798  0.5185
 3709SOL    HW211184   3.885   3.119   0.895  1.7866  1.3757  1.3656
 3710SOL     OW11185   4.105   2.584   2.287 -0.0569  0.0692  0.4321
 3710SOL    HW111186   4.100   2.610   2.379  0.0068  0.2551  0.3836
 3710SOL    HW211187   4.017   2.555   2.265  0.2003 -1.1757  0.9024
 3711SOL     OW11188   2.547   0.599   3.824 -0.3151 -0.5576  0.0790
 3711SOL    HW111189   2.565   0.671   3.884 -2.3178 -1.0661  1.3848
 3711SOL    HW211190   2.574   0.633   3.738  0.9142  0.8578  0.9656
 3712SOL     OW11191   1.519   2.892   2.795  0.0228 -0.5539  0.2562
 3712SOL    HW111192   1.568   2.932   2.724  0.1778  0.2613  0.8041
 3712SOL    HW211193   1.469   2.822   2.753  0.1898 -0.1594 -0.6313
 3713SOL     OW11194   2.020   0.582   2.116  0.1345 -0.7418 -0.0418
 3713SOL    HW111195   1.954   0.514   2.123  1.3346 -1.9295  0.1371
 3713SOL    HW211196   1.988   0.653   2.171 -1.6135 -0.7364 -0.9951
 3714SOL     OW11197   3.114   0.178   1.053 -0.0239  0.0653 -0.5931
 3714SOL    HW111198   3.144   0.230   1.127  1.5192 -0.1478 -1.0399
 3714SOL    HW211199   3.096   0.243   0.984 -3.0393  0.4287  0.3934
 3715SOL     OW11200   3.117   3.233   2.019 -0.1568  0.5077  0.1552
 3715SOL    HW111201   3.185   3.252   1.954  0.0272  0.6426  0.3857
 3715SOL    HW211202   3.142   3.285   2.096 -0.9744  1.2041 -0.0356
 3716SOL     OW11203   1.409   3.253   4.348  0.5434  0.0468 -0.1265
 3716SOL    HW111204   1.389   3.224   4.436  1.3226  0.8182  0.3308
 3716SOL    HW211205   1.447   3.340   4.360  2.4433 -0.5945 -1.0326
 3717SOL     OW11206   0.224   4.564   0.444 -0.3369  0.7323 -0.5369
 3717SOL    HW111207   0.271   4.592   0.523 -0.3162  1.3270 -0.7570
 3717SOL    HW211208   0.236   4.469   0.442  0.8995  0.8686 -0.6132
 3718SOL     OW11209   0.501   3.115   2.863  0.2443 -0.2858 -0.2802
 3718SOL    HW111210   0.525   3.055   2.934  1.3447 -0.1488 -0.5321
 3718SOL    HW211211   0.582   3.133   2.817 -0.0800  1.2600 -0.3284
 3719SOL     OW11212   1.865   2.774   2.052  0.1143 -0.4859  0.0153
 3719SOL    HW111213   1.790   2.723   2.022 -0.3558 -0.2675  0.7860
 3719SOL    HW211214   1.931   2.763   1.984 -1.2712  0.8260 -1.6117
 3720SOL     OW11215   4.054   2.321   0.427 -0.0541  0.3223  0.1355
 3720SOL    HW111216   4.144   2.338   0.452 -0.3331  0.6684  0.9358
 3720SOL    HW211217   4.026   2.250   0.486 -0.1130 -0.2130 -0.5284
 3721SOL     OW11218   3.838   0.835   0.696 -0.3749 -0.0729 -0.2637
 3721SOL    HW111219   3.900   0.841   0.623 -0.5812 -0.7625 -0.4986
 3721SOL    HW211220   3.881   0.881   0.768  1.2042 -2.0226  0.1192
 3722SOL     OW11221   4.809   4.691   0.510 -0.0882  0.1500  0.2553
 3722SOL    HW111222   4.793   4.629   0.581 -0.6038  1.0731  0.9598
 3722SOL    HW211223   4.727   4.695   0.461  0.1066 -0.1046 -0.0980
 3723SOL     OW11224   0.059   2.331   4.819  0.0337 -0.7123 -0.0706
 3723SOL    HW111225   0.115   2.263   4.858 -0.1509 -0.8299 -0.0104
 3723SOL    HW211226   0.118   2.382   4.764  0.3044 -0.5202  0.3923
 3724SOL     OW11227   4.617   2.034   2.194 -0.0384  0.4517  0.0211
 3724SOL    HW111228   4.712   2.044   2.187  0.0453 -0.3416 -0.0788
 3724SOL    HW211229   4.582   2.081   2.118  0.3993 -0.9275 -1.0962
 3725SOL     OW11230   3.242   3.461   3.289  0.1029  0.6144  0.7696
 3725SOL    HW111231   3.234   3.553   3.315 -1.9685  0.2920  1.4393
 3725SOL    HW211232   3.280   3.418   3.365  0.6749  0.8350  0.6131
 3726SOL     OW11233   1.523   0.626   0.236  0.3850 -0.4631  0.1946
 3726SOL    HW111234   1.511   0.675   0.317  2.3816 -1.1180  0.9574
 3726SOL    HW211235   1.444   0.573   0.227  0.7505 -1.5447  2.5823
 3727SOL     OW11236   3.797   0.867   3.497 -0.1987 -0.6269  0.2625
 3727SOL    HW111237   3.731   0.816   3.544  0.3307 -2.0574 -0.5002
 3727SOL    HW211238   3.865   0.804   3.475  0.3084  0.3266 -1.0362
 3728SOL     OW11239   4.040   0.610   1.175  0.0367  0.4329  0.1972
 3728SOL    HW111240   4.111   0.651   1.126  0.5687 -1.8230 -1.0612
 3728SOL    HW211241   3.961   0.648   1.138  0.5106  1.0282 -0.2347
 3729SOL     OW11242   3.528   2.149   4.860 -0.1710  0.2223 -0.0780
 3729SOL    HW111243   3.543   2.225   4.804  1.3847 -0.1353 -0.2132
 3729SOL    HW211244   3.556   2.075   4.808 -2.3126 -0.5614 -0.1960
 3730SOL     OW11245   0.165   4.959   0.157 -0.1485  0.4291 -0.0050
 3730SOL    HW111246   0.129   4.904   0.226  0.5099 -0.2036 -0.1505
 3730SOL    HW211247   0.210   5.030   0.204 -0.0975  0.2550  0.2072
 3731SOL     OW11248   1.465   3.809   4.593  0.3321  0.3487 -0.6846
 3731SOL    HW111249   1.469   3.714   4.600 -1.1143  0.2222 -1.3424
 3731SOL    HW211250   1.425   3.838   4.675  1.6063  0.4901 -0.0860
 3732SOL     OW11251   1.706   1.464   0.145  0.0279  0.3110  0.1091
 3732SOL    HW111252   1.798   1.461   0.117  0.1268  2.1661  0.1270
 3732SOL    HW211253   1.661   1.406   0.083  1.2006 -0.6611  0.1256
 3733SOL     OW11254   3.280   1.961   0.014  0.3252  0.3843  0.7813
 3733SOL    HW111255   3.358   2.017   0.012  0.8114 -0.2743 -1.6765
 3733SOL    HW211256   3.306   1.886   0.067  0.7090  1.0389  1.5353
 3734SOL     OW11257   2.210   0.983   2.350  0.6677 -0.3355  0.2298
 3734SOL    HW111258   2.195   0.911   2.289 -0.2834  0.3157 -0.3498
 3734SOL    HW211259   2.208   0.943   2.437 -1.8437 -0.7788  0.0525
 3735SOL     OW11260   4.873   1.139   0.370  0.1680 -0.5676 -0.1688
 3735SOL    HW111261   4.899   1.147   0.462 -0.4031 -0.4462 -0.0158
 3735SOL    HW211262   4.789   1.185   0.365  0.0113 -0.9068 -0.6723
 3736SOL     OW11263   1.437   3.943   3.284 -1.1901 -0.2776  0.3322
 3736SOL    HW111264   1.457   3.850   3.296 -1.4301 -0.4177 -0.3170
 3736SOL    HW211265   1.478   3.986   3.359  2.2497 -0.4410 -1.2901
 3737SOL     OW11266   4.012   4.034   2.907  0.0006 -0.8058  0.3435
 3737SOL    HW111267   4.078   4.005   2.844  0.0601 -0.2623  0.1447
 3737SOL    HW211268   3.941   4.069   2.853 -0.4217 -1.3207  0.5574
 3738SOL     OW11269   3.024   0.845   4.476 -0.5985 -0.6546 -0.4801
 3738SOL    HW111270   2.931   0.828   4.486 -1.3506  3.0117  0.2610
 3738SOL    HW211271   3.060   0.832   4.564 -0.6280 -0.9724 -0.5142
 3739SOL     OW11272   3.565   1.295   0.365  0.1257 -0.2444 -0.1232
 3739SOL    HW111273   3.651   1.257   0.352 -0.0916 -0.8999  0.2880
 3739SOL    HW211274   3.506   1.220   0.371 -0.7262  0.2305 -2.0179
 3740SOL     OW11275   0.521   2.974   4.283  0.0147  0.6348 -0.2158
 3740SOL    HW111276   0.597   3.019   4.320 -1.0630  2.1179  0.2936
 3740SOL    HW211277   0.514   2.894   4.334  0.1717  1.3548  0.9881
 3741SOL     OW11278   2.282   0.398   1.729  0.2161 -0.5944 -0.2472
 3741SOL    HW111279   2.239   0.377   1.812 -0.8495 -0.1318 -0.6637
 3741SOL    HW211280   2.252   0.330   1.668 -2.1704  1.2090 -1.2434
 3742SOL     OW11281   3.749   4.398   1.286 -0.3573 -0.0766  0.0446
 3742SOL    HW111282   3.750   4.494   1.278  1.3448 -0.1453 -1.3695
 3742SOL    HW211283   3.707   4.368   1.206 -1.3010 -0.5282  0.6945
 3743SOL     OW11284   2.681   2.317   4.381  0.0542  0.1650  0.2437
 3743SOL    HW111285   2.760   2.310   4.326 -0.1805  2.8135 -0.5420
 3743SOL    HW211286   2.608   2.312   4.319 -0.2234  2.6055  0.2635
 3744SOL     OW11287   3.850   4.566  -0.021  0.0693  0.7456 -0.1931
 3744SOL    HW111288   3.911   4.493  -0.025  1.0104  1.5507 -2.3477
 3744SOL    HW211289   3.788   4.542   0.047  0.9717 -1.5414 -0.0841
 3745SOL     OW11290   1.448   2.378   2.979  0.4645 -0.1260  0.0632
 3745SOL    HW111291   1.514   2.350   3.042  2.2757  2.2199 -0.6574
 3745SOL    HW211292   1.460   2.473   2.972 -3.1028  0.4586 -0.0316
 3746SOL     OW11293   0.678   0.209   0.642 -0.2515  0.2635 -0.5921
 3746SOL    HW111294   0.624   0.271   0.691 -1.1765  0.0563 -1.3175
 3746SOL    HW211295   0.615   0.148   0.604  0.4915  0.1160 -1.6158
 3747SOL     OW11296   0.304   1.019   4.610 -0.2299 -0.8783 -0.3812
 3747SOL    HW111297   0.260   0.988   4.689  0.6227 -3.3659 -0.7650
 3747SOL    HW211298   0.393   0.983   4.617  0.7659  1.2539 -1.1627
 3748SOL     OW11299   1.630   0.316   4.349 -0.4958  1.0724  0.0956
 3748SOL    HW111300   1.570   0.296   4.421 -0.0670  1.1903  0.4844
 3748SOL    HW211301   1.592   0.271   4.273  0.8356 -1.8835  1.0505
 3749SOL     OW11302   2.351   4.706   2.027 -0.3334 -0.6482 -0.5724
 3749SOL    HW111303   2.415   4.686   1.958  1.4947  0.4746  0.6946
 3749SOL    HW211304   2.277   4.744   1.981  1.0135  0.4584 -1.9141
 3750SOL     OW11305   1.674   4.090   4.252  0.1837 -0.2640 -0.0207
 3750SOL    HW111306   1.700   4.098   4.344 -0.9784 -0.6566  0.3614
 3750SOL    HW211307   1.746   4.129   4.203  1.2250 -0.8415  1.0074
 3751SOL     OW11308   0.234   4.429   1.581  0.0197  0.4703 -0.2384
 3751SOL    HW111309   0.181   4.371   1.525 -0.0701  0.1179  0.2097
 3751SOL    HW211310   0.209   4.406   1.670 -0.6312  1.7819 -0.0589
 3752SOL     OW11311   2.043   3.380   1.565 -0.5456 -0.3305 -0.4363
 3752SOL    HW111312   2.105   3.312   1.537 -0.6068 -0.2704 -0.7175
 3752SOL    HW211313   1.957   3.337   1.561 -0.4353 -0.7287  0.9221
 3753SOL     OW11314   3.696   0.668   3.696 -0.2396  0.2185  0.1987
 3753SOL    HW111315   3.736   0.596   3.744  0.1499  1.0029  1.0949
 3753SOL    HW211316   3.614   0.632   3.661 -0.8187 -0.2413  1.9424
 3754SOL     OW11317   4.979   2.374   1.406  0.4069  0.5247  0.5442
 3754SOL    HW111318   4.891   2.349   1.433  1.0389 -3.0169 -0.1370
 3754SOL    HW211319   4.972   2.384   1.311  0.5723  1.3076  0.6048
 3755SOL     OW11320   1.740   3.352   3.233  0.4857  0.0490  0.3623
 3755SOL    HW111321   1.706   3.316   3.315 -1.4623 -0.3626 -0.5562
 3755SOL    HW211322   1.665   3.349   3.173  2.0650 -0.4609 -1.6925
 3756SOL     OW11323   3.696   1.885   0.094  0.0732  0.4942  0.1518
 3756SOL    HW111324   3.758   1.918   0.028  0.1272  0.6610  0.2857
 3756SOL    HW211325   3.665   1.802   0.058  1.0451 -0.0312  0.4918
 3757SOL     OW11326   2.044   4.522   0.241  0.1007 -0.0162  0.0720
 3757SOL    HW111327   2.103   4.595   0.221  0.4369 -0.1421  0.5805
 3757SOL    HW211328   2.063   4.457   0.174 -1.3317  0.9813 -1.3656
 3758SOL     OW11329   2.013   2.026   1.697  0.3740  0.4071  0.1073
 3758SOL    HW111330   2.013   2.052   1.605  0.0846 -0.5789 -0.1800
 3758SOL    HW211331   1.926   1.988   1.711  0.6240  0.0210  0.6360
 3759SOL     OW11332   4.985   3.359   1.092  0.5597  0.5375  0.0756
 3759SOL    HW111333   4.890   3.371   1.094  0.2042 -1.7289  1.6726
 3759SOL    HW211334   5.014   3.386   1.179  0.7699 -2.1559  0.9361
 3760SOL     OW11335   3.527   3.193   1.471 -0.1825  0.2383 -0.5885
 3760SOL    HW111336   3.519   3.138   1.393  0.3047  0.5106 -0.8305
 3760SOL    HW211337   3.577   3.140   1.533  0.6459  0.5671 -0.9716
 3761SOL     OW11338   3.077   3.635   0.738  0.7031 -0.1389 -0.8424
 3761SOL    HW111339   3.017   3.566   0.708 -1.3398  1.2350 -0.1309
 3761SOL    HW211340   3.077   3.700   0.668  0.4296  0.4110 -0.3411
 3762SOL     OW11341   3.065   3.889   1.434 -0.3939  0.2467 -0.4745
 3762SOL    HW111342   3.129   3.950   1.472  0.6139 -0.1191 -1.5270
 3762SOL    HW211343   2.980   3.926   1.458  0.2043  1.0358  0.5065
 3763SOL     OW11344   0.410   3.633   2.855 -0.5177 -0.3278 -0.1566
 3763SOL    HW111345   0.437   3.719   2.886 -0.9880 -0.1153 -0.3250
 3763SOL    HW211346   0.429   3.574   2.928  0.3174 -0.1748 -0.2420
 3764SOL     OW11347   1.057   2.361   0.062  0.0587  0.1460  0.0897
 3764SOL    HW111348   0.981   2.328   0.013  0.0535  2.3989 -1.5764
 3764SOL    HW211349   1.132   2.317   0.022 -0.1104  0.5518 -0.7028
 3765SOL     OW11350   2.430   1.900   3.947  0.5803 -0.3728  0.4048
 3765SOL    HW111351   2.363   1.956   3.987  1.0021  0.0907  0.4698
 3765SOL    HW211352   2.497   1.890   4.014  1.7455  1.1730 -0.4438
 3766SOL     OW11353   0.380   0.591   2.195  0.0135 -0.1193  0.2129
 3766SOL    HW111354   0.447   0.644   2.239 -0.0580  0.2190 -0.0761
 3766SOL    HW211355   0.428   0.544   2.126  0.1984 -0.9708  0.9158
 3767SOL     OW11356   2.047   1.637   2.542 -0.1117 -0.0375 -0.1017
 3767SOL    HW111357   2.071   1.547   2.567  1.3977  0.0686 -1.0363
 3767SOL    HW211358   2.061   1.688   2.621  1.3878 -0.2550 -0.1897
 3768SOL     OW11359   3.698   2.622   3.575  0.0400  0.0259 -0.2436
 3768SOL    HW111360   3.653   2.592   3.654 -0.6008 -1.5662 -1.1475
 3768SOL    HW211361   3.721   2.541   3.529  5.1703  0.5942  0.7549
 3769SOL     OW11362   4.145   4.031   3.461 -0.2855 -0.0716 -0.2077
 3769SOL    HW111363   4.067   4.059   3.413 -0.9367 -0.7795  0.4177
 3769SOL    HW211364   4.204   4.107   3.457 -2.0800  1.5316  1.6191
 3770SOL     OW11365   1.120   4.842   1.095 -0.1389  0.1889 -0.5088
 3770SOL    HW111366   1.115   4.750   1.073  1.4043 -0.6769  2.2100
 3770SOL    HW211367   1.043   4.858   1.149  1.1374 -0.4569  1.6498
 3771SOL     OW11368   3.348   0.316   3.073  0.9478  0.2903  0.5214
 3771SOL    HW111369   3.382   0.374   3.004  2.4693  0.3063  1.2502
 3771SOL    HW211370   3.335   0.373   3.148  0.2391  0.0884  0.5578
 3772SOL     OW11371   1.589   2.466   2.115  0.1267  0.7182  0.2374
 3772SOL    HW111372   1.541   2.415   2.050 -0.1502  0.6402  0.5054
 3772SOL    HW211373   1.603   2.406   2.188 -1.3000  1.3779  1.0892
 3773SOL     OW11374   1.101   4.572   1.066 -0.2459  0.1549  0.0866
 3773SOL    HW111375   1.008   4.584   1.086 -0.1885  1.0811 -0.1739
 3773SOL    HW211376   1.102   4.504   0.999 -0.6104 -1.1468  1.3400
 3774SOL     OW11377   0.459   3.013   3.267 -0.1879  0.1141 -0.1363
 3774SOL    HW111378   0.499   2.973   3.190 -0.0694 -0.2337  0.1011
 3774SOL    HW211379   0.432   2.939   3.322  1.7727  0.3175  1.2105
 3775SOL     OW11380   4.943   2.617   4.768 -0.3461 -0.2225 -0.3445
 3775SOL    HW111381   4.877   2.557   4.733 -0.3360 -1.1992  1.2202
 3775SOL    HW211382   4.899   2.702   4.771 -0.2899 -0.0439 -2.7956
 3776SOL     OW11383   0.325   1.721   4.644 -0.2418  0.2042  0.0690
 3776SOL    HW111384   0.259   1.790   4.646  0.6138  1.2082 -2.2686
 3776SOL    HW211385   0.278   1.644   4.613 -0.4689  0.7943 -1.1364
 3777SOL     OW11386   0.601   4.455   4.245  0.0369 -0.1137  0.6193
 3777SOL    HW111387   0.531   4.457   4.180 -0.9039 -0.7930  1.5662
 3777SOL    HW211388   0.555   4.468   4.329  1.2661  1.3052  1.1122
 3778SOL     OW11389   0.933   1.188   4.538 -0.2719  0.9666  0.2869
 3778SOL    HW111390   0.843   1.219   4.530 -0.1274  1.5023  0.6841
 3778SOL    HW211391   0.934   1.138   4.620 -0.4328  0.1447 -0.2018
 3779SOL     OW11392   4.052   2.388   1.699  0.0070  0.4841  0.3743
 3779SOL    HW111393   4.013   2.304   1.675  3.9124 -1.7480  1.0297
 3779SOL    HW211394   4.018   2.449   1.634 -1.7067 -1.9406 -1.1815
 3780SOL     OW11395   2.339   2.887   0.437  0.0042 -0.9532  0.0350
 3780SOL    HW111396   2.385   2.900   0.354  0.0217  0.5051  0.2433
 3780SOL    HW211397   2.280   2.962   0.444  1.1258 -0.1592  2.0451
 3781SOL     OW11398   4.467   1.153   0.551 -0.9286  0.2003 -0.0371
 3781SOL    HW111399   4.496   1.185   0.465  0.7870 -0.2301  0.3443
 3781SOL    HW211400   4.524   1.197   0.614 -3.5930  2.2149  1.1221
 3782SOL     OW11401   2.758   2.611   3.306  0.0772  0.3320  0.1231
 3782SOL    HW111402   2.672   2.651   3.299  0.3423  0.7876 -0.6994
 3782SOL    HW211403   2.771   2.567   3.222  0.2419 -0.5770  0.6062
 3783SOL     OW11404   1.326   1.234   3.052 -0.6185 -0.0053 -0.2566
 3783SOL    HW111405   1.305   1.203   2.964  0.5726 -2.6574  0.2821
 3783SOL    HW211406   1.360   1.157   3.097 -0.6554  1.3939  2.3820
 3784SOL     OW11407   2.183   3.177   3.225  0.3232  0.1970 -0.3532
 3784SOL    HW111408   2.186   3.181   3.129 -3.2526 -0.0925 -0.6127
 3784SOL    HW211409   2.151   3.263   3.252 -0.0647 -0.1846  0.4415
 3785SOL     OW11410   1.638   1.481   3.941  0.0061 -0.4255 -0.3883
 3785SOL    HW111411   1.604   1.410   3.887 -0.8049  0.4165 -1.0160
 3785SOL    HW211412   1.670   1.546   3.879 -0.4807  0.3452  0.1471
 3786SOL     OW11413   2.950   1.838   3.546  0.1487  0.3253  0.1595
 3786SOL    HW111414   2.982   1.922   3.580 -0.2283 -0.5535  2.9573
 3786SOL    HW211415   2.967   1.776   3.617  1.6173 -2.3053 -2.2831
 3787SOL     OW11416   1.771   1.938   0.512  0.4301  0.8873 -0.2349
 3787SOL    HW111417   1.731   2.021   0.490 -0.4635  0.4827 -0.1609
 3787SOL    HW211418   1.839   1.960   0.576 -0.4210  1.4510  0.4879
 3788SOL     OW11419   3.558   3.988   2.932 -0.0823 -0.2825 -0.0157
 3788SOL    HW111420   3.569   3.996   2.837 -0.0253 -0.8601 -0.0604
 3788SOL    HW211421   3.464   3.971   2.944 -0.6993  2.7869  0.2420
 3789SOL     OW11422   3.828   2.531   3.139 -0.0828 -0.3658  0.4824
 3789SOL    HW111423   3.839   2.522   3.044 -0.2641 -0.8998  0.5114
 3789SOL    HW211424   3.829   2.626   3.154  0.6393 -0.2950  0.0351
 3790SOL     OW11425   1.665   4.503   2.088 -0.2133 -0.2179 -0.3307
 3790SOL    HW111426   1.707   4.562   2.152  0.7388  0.2454 -1.3464
 3790SOL    HW211427   1.575   4.496   2.118  0.6765 -1.7878  2.3402
 3791SOL     OW11428   2.973   3.302   2.839 -0.2089  0.1605 -0.0007
 3791SOL    HW111429   2.971   3.369   2.771  1.5870 -0.7187 -1.0135
 3791SOL    HW211430   3.054   3.319   2.888 -1.3427  0.6174  1.8011
 3792SOL     OW11431   1.124   1.698   0.820 -0.7086 -0.2839 -0.3978
 3792SOL    HW111432   1.074   1.776   0.798 -0.3949 -0.1488 -0.6428
 3792SOL    HW211433   1.181   1.726   0.892 -1.2888 -0.5560  0.1817
 3793SOL     OW11434   0.710   2.584   3.935  0.7743  0.0264  0.3679
 3793SOL    HW111435   0.656   2.522   3.888  0.9396  2.2181 -3.1240
 3793SOL    HW211436   0.769   2.530   3.988  0.2697 -2.7265 -1.6611
 3794SOL     OW11437   3.470   4.512   4.235 -0.0494 -0.5992 -0.5306
 3794SOL    HW111438   3.379   4.532   4.213  0.2945 -0.7509 -2.2403
 3794SOL    HW211439   3.474   4.416   4.237 -0.0177 -0.5914  0.0171
 3795SOL     OW11440   0.678   3.370   1.662  0.7044  0.6268  0.2017
 3795SOL    HW111441   0.746   3.389   1.726  0.8880 -1.0823  0.5693
 3795SOL    HW211442   0.610   3.324   1.711 -0.4350  1.7217 -0.2927
 3796SOL     OW11443   2.131   4.415   4.052 -1.0646  0.2748 -0.0576
 3796SOL    HW111444   2.067   4.457   4.109 -1.2745 -1.7602  1.3017
 3796SOL    HW211445   2.094   4.425   3.964 -3.3650 -0.9677  0.7015
 3797SOL     OW11446   4.104   4.738   3.388  0.0949 -0.2439 -0.1944
 3797SOL    HW111447   4.182   4.755   3.336 -0.1138  0.0066 -0.4294
 3797SOL    HW211448   4.078   4.649   3.366  0.8284 -0.6624  0.5597
 3798SOL     OW11449   2.272   3.002   2.475 -0.4477 -0.3314 -0.2578
 3798SOL    HW111450   2.277   3.055   2.395  0.4282  0.3551  0.2251
 3798SOL    HW211451   2.349   2.945   2.470 -0.7629 -0.7628 -0.2228
 3799SOL     OW11452   3.716   0.598   0.934  0.0906 -0.1723 -0.0776
 3799SOL    HW111453   3.681   0.528   0.989  1.8456 -0.6296  0.5405
 3799SOL    HW211454   3.669   0.677   0.961 -0.7434 -0.8266  0.3984
 3800SOL     OW11455   4.780   4.316   2.409 -0.4497  0.3995 -0.2181
 3800SOL    HW111456   4.719   4.245   2.430 -0.1703  0.7736  2.0857
 3800SOL    HW211457   4.822   4.287   2.327 -1.4408 -1.3531 -0.1669
 3801SOL     OW11458   0.388   4.350   4.072 -0.1320 -0.2020  0.2768
 3801SOL    HW111459   0.439   4.275   4.044 -1.2997 -0.3726 -1.5675
 3801SOL    HW211460   0.409   4.419   4.008 -1.0389  0.1997  0.3947
 3802SOL     OW11461   2.954   3.114   2.379  0.0296 -0.1329  0.2552
 3802SOL    HW111462   3.046   3.088   2.374  0.0895 -0.0355  0.8186
 3802SOL    HW211463   2.918   3.060   2.449 -0.0214  0.7501  0.9270
 3803SOL     OW11464   2.369   1.822   1.645 -0.1888 -0.7600  0.1344
 3803SOL    HW111465   2.375   1.844   1.552  0.1332  1.0637  0.5485
 3803SOL    HW211466   2.275   1.808   1.660 -0.3677  0.0017 -0.2433
 3804SOL     OW11467   2.823   4.301   1.440  0.1149  0.3771 -0.4930
 3804SOL    HW111468   2.890   4.368   1.423 -0.6506  1.4239  0.4707
 3804SOL    HW211469   2.756   4.317   1.373  0.9407 -0.9009 -1.6878
 3805SOL     OW11470   0.198   0.877   1.339  0.0007 -0.4511 -0.1819
 3805SOL    HW111471   0.219   0.917   1.424 -0.8188 -0.9941  0.2877
 3805SOL    HW211472   0.280   0.881   1.290 -0.1485  2.1763 -0.3268
 3806SOL     OW11473   0.781   3.791   2.602 -0.5070  0.3031 -0.8786
 3806SOL    HW111474   0.735   3.745   2.532 -1.3035 -0.5258  0.1504
 3806SOL    HW211475   0.872   3.763   2.594 -0.0732  2.0970 -3.0470
 3807SOL     OW11476   1.051   3.027   1.097 -0.6470 -0.4060  0.9183
 3807SOL    HW111477   1.115   2.962   1.123 -0.6532 -0.8903 -0.2235
 3807SOL    HW211478   1.098   3.086   1.038 -1.1402 -0.5395  0.3761
 3808SOL     OW11479   2.327   1.592   0.616  0.2092 -0.4139 -0.0695
 3808SOL    HW111480   2.301   1.579   0.525  1.3162  1.5527 -0.7252
 3808SOL    HW211481   2.416   1.626   0.611  0.8580 -1.6554  1.8443
 3809SOL     OW11482   4.427   1.403   4.744  0.1533 -0.0123  0.1479
 3809SOL    HW111483   4.348   1.454   4.762  0.3689  0.0970  0.7968
 3809SOL    HW211484   4.488   1.466   4.706  0.4075  0.2155  0.9185
 3810SOL     OW11485   4.767   0.518   0.961  0.3517 -0.4059  0.4423
 3810SOL    HW111486   4.694   0.559   1.009  0.8482  1.0374  0.0172
 3810SOL    HW211487   4.820   0.592   0.932  1.6738 -1.4163  0.2336
 3811SOL     OW11488   0.624   2.280   2.951 -0.0532 -0.0275  0.2127
 3811SOL    HW111489   0.685   2.300   2.879  1.0420  1.7599  1.5508
 3811SOL    HW211490   0.559   2.222   2.911  1.1106  0.0230 -1.9394
 3812SOL     OW11491   3.196   4.526   2.705  0.5497 -0.0292  0.3761
 3812SOL    HW111492   3.139   4.601   2.689  0.7547  0.0809  0.1703
 3812SOL    HW211493   3.249   4.518   2.626  0.9779  0.0042  0.6577
 3813SOL     OW11494   1.190   3.041   2.551  0.4221 -0.8522 -0.3102
 3813SOL    HW111495   1.137   2.962   2.542  1.2556 -1.6893  1.5161
 3813SOL    HW211496   1.127   3.109   2.575  0.0447 -1.7267  1.3519
 3814SOL     OW11497   2.387   1.350   4.090 -0.8384  0.6698 -0.6891
 3814SOL    HW111498   2.381   1.381   3.999 -1.2982  0.2660 -0.8037
 3814SOL    HW211499   2.448   1.276   4.086 -0.5494  0.9013 -0.5976
 3815SOL     OW11500   1.017   4.831   0.272 -0.1080 -0.0381 -1.1485
 3815SOL    HW111501   1.062   4.754   0.236 -1.5912 -1.1241 -0.7948
 3815SOL    HW211502   1.076   4.865   0.338  0.9065 -0.4191 -1.8374
 3816SOL     OW11503   3.941   3.534   3.713  0.1883 -0.0822  0.2165
 3816SOL    HW111504   3.931   3.446   3.749 -1.2602 -0.6203 -1.3562
 3816SOL    HW211505   4.035   3.544   3.702  0.4261 -1.1897  0.9720
 3817SOL     OW11506   4.738   1.903   2.875  1.2374 -0.6428  0.1365
 3817SOL    HW111507   4.735   1.998   2.867 -0.1561 -0.0140  5.1441
 3817SOL    HW211508   4.652   1.873   2.844  1.1691 -0.1344 -0.1705
 3818SOL     OW11509   2.870   0.546   3.681 -0.1852 -0.0454 -0.1461
 3818SOL    HW111510   2.788   0.511   3.649 -1.4581  0.8307  1.9071
 3818SOL    HW211511   2.890   0.494   3.759  0.8194  0.2243 -0.2031
 3819SOL     OW11512   0.095   3.053   0.971 -0.4269  0.4226 -0.7579
 3819SOL    HW111513   0.139   3.016   1.048  0.7955  0.0540 -1.5870
 3819SOL    HW211514   0.159   3.041   0.900 -0.7703  2.4064 -1.4588
 3820SOL     OW11515   0.614   1.021   0.479  0.4615 -0.2120  0.5277
 3820SOL    HW111516   0.619   1.095   0.419 -0.2851 -1.0468 -0.6001
 3820SOL    HW211517   0.602   1.061   0.565  2.9926  1.0579  0.3941
 3821SOL     OW11518   0.902   0.799   3.414  0.2530 -0.1685 -0.1448
 3821SOL    HW111519   0.980   0.841   3.451 -0.3961  0.8608  0.0915
 3821SOL    HW211520   0.879   0.853   3.339 -0.5759 -0.1284  0.1352
 3822SOL     OW11521   0.314   2.344   2.645  0.0785 -0.1524  0.1355
 3822SOL    HW111522   0.361   2.364   2.726 -0.7896 -1.3378  0.9730
 3822SOL    HW211523   0.286   2.253   2.655 -0.2819 -0.2431 -1.3888
 3823SOL     OW11524   4.313   0.022   3.986  0.6410 -0.4953  0.6571
 3823SOL    HW111525   4.289   0.109   4.018  1.4986 -0.2968  0.7894
 3823SOL    HW211526   4.232  -0.014   3.949  0.7975  1.4360 -1.8618
 3824SOL     OW11527   2.249   0.971   4.032 -0.3112 -0.2177 -0.0902
 3824SOL    HW111528   2.260   0.920   4.112  1.4228  1.7613  1.0197
 3824SOL    HW211529   2.337   0.998   4.008 -0.9840  0.7754 -1.6309
 3825SOL     OW11530   3.745   4.169   4.212  0.3084 -0.6373 -0.0267
 3825SOL    HW111531   3.723   4.217   4.291 -0.7240  0.7333 -1.1086
 3825SOL    HW211532   3.829   4.205   4.184  0.1242 -0.3158 -0.1696
 3826SOL     OW11533   1.475   4.175   2.364  0.1090  0.7326 -0.2057
 3826SOL    HW111534   1.555   4.208   2.323 -0.5399  0.7854 -1.5056
 3826SOL    HW211535   1.425   4.254   2.387  1.4261  0.8074  2.8765
 3827SOL     OW11536   3.734   4.378   2.546 -0.3011 -0.0455  0.0485
 3827SOL    HW111537   3.772   4.443   2.604  1.0056 -0.7050 -0.0272
 3827SOL    HW211538   3.678   4.428   2.487  0.9620  1.0725 -0.2547
 3828SOL     OW11539   4.460   3.582   1.044  0.2564  0.1362  0.4949
 3828SOL    HW111540   4.466   3.608   0.953  0.4077  0.5038  0.6061
 3828SOL    HW211541   4.396   3.642   1.082  0.3445  0.1190  0.6740
 3829SOL     OW11542   1.088   4.185   1.554 -0.0572  0.7758  0.1311
 3829SOL    HW111543   1.152   4.131   1.600 -1.1925 -0.1734  0.6536
 3829SOL    HW211544   1.105   4.169   1.461  0.5111  0.5931  0.2675
 3830SOL     OW11545   1.810   3.320   1.114 -0.2949  0.1364  0.5618
 3830SOL    HW111546   1.792   3.332   1.021 -0.2029 -0.0738  0.5154
 3830SOL    HW211547   1.777   3.232   1.133 -0.6794  0.3341  0.8191
 3831SOL     OW11548   4.047   3.051   4.221 -0.5193  0.6312 -0.2128
 3831SOL    HW111549   4.021   2.971   4.176 -0.2047  0.3840  0.0361
 3831SOL    HW211550   4.123   3.025   4.274  0.2164  1.3221 -0.8932
 3832SOL     OW11551   3.458   2.162   2.989  0.8282 -1.1234 -0.0560
 3832SOL    HW111552   3.543   2.187   3.026  1.2175  0.3547 -1.8134
 3832SOL    HW211553   3.452   2.211   2.907 -1.1536 -2.2261 -0.6354
 3833SOL     OW11554   1.908   0.634   1.014 -0.4986  0.2104  0.4902
 3833SOL    HW111555   1.902   0.727   0.992 -2.3469 -0.2571 -1.2946
 3833SOL    HW211556   1.859   0.589   0.945  2.0844 -2.3307  0.1059
 3834SOL     OW11557   0.133   2.775   3.873 -0.1183 -0.3058 -0.5657
 3834SOL    HW111558   0.071   2.847   3.858 -0.1280 -0.7057 -2.7902
 3834SOL    HW211559   0.209   2.817   3.915 -0.9612  0.5890  0.1133
 3835SOL     OW11560   0.360   1.976   4.302 -0.4718  0.3374  0.2030
 3835SOL    HW111561   0.368   1.946   4.212 -0.9125  0.0117  0.2674
 3835SOL    HW211562   0.266   1.972   4.321 -0.3024 -0.4486  0.9589
 3836SOL     OW11563   4.171   1.555   2.574 -0.2570 -0.2353  0.0392
 3836SOL    HW111564   4.221   1.494   2.627 -1.9440 -1.4264  0.3324
 3836SOL    HW211565   4.090   1.570   2.623 -0.8309  0.4914 -1.0732
 3837SOL     OW11566   4.594   1.019   1.417 -0.0487 -0.2930 -0.5542
 3837SOL    HW111567   4.520   1.053   1.368  0.4749  0.6495 -0.7175
 3837SOL    HW211568   4.582   0.924   1.417 -1.1492 -0.1592 -0.7245
 3838SOL     OW11569   4.003   4.460   1.461  0.1107  0.0335  0.9989
 3838SOL    HW111570   3.995   4.401   1.537 -2.1918  1.2951  1.8538
 3838SOL    HW211571   3.920   4.448   1.414 -0.7307  2.9129  1.5442
 3839SOL     OW11572   0.387   4.660   0.660 -0.0880  0.0778 -0.1918
 3839SOL    HW111573   0.479   4.681   0.678 -0.4856  1.7772  0.1049
 3839SOL    HW211574   0.357   4.616   0.740  1.0276 -2.6910 -1.1916
 3840SOL     OW11575   1.021   3.352   3.516 -0.3688 -0.1296  0.5350
 3840SOL    HW111576   0.955   3.375   3.450 -0.4341 -0.7894  0.3585
 3840SOL    HW211577   1.101   3.395   3.486  0.0273 -1.7417 -0.9086
 3841SOL     OW11578   4.870   4.355   2.917  0.4402 -0.2414 -0.0782
 3841SOL    HW111579   4.783   4.395   2.910  0.2669 -0.4160  0.8584
 3841SOL    HW211580   4.914   4.405   2.986  0.7736 -0.6795  0.0346
 3842SOL     OW11581   3.395   1.830   4.650 -0.3700  0.4307 -0.1290
 3842SOL    HW111582   3.330   1.787   4.706 -0.2592 -0.8417 -0.9135
 3842SOL    HW211583   3.343   1.879   4.586 -0.4990  1.6297  0.8707
 3843SOL     OW11584   2.683   1.265   1.259  0.2269  0.0343  0.2103
 3843SOL    HW111585   2.748   1.286   1.192  0.2500 -0.6477  0.0117
 3843SOL    HW211586   2.673   1.170   1.254  1.7933 -0.3580  2.5847
 3844SOL     OW11587   1.633   2.404   3.166  0.1086  0.3040 -0.1791
 3844SOL    HW111588   1.637   2.485   3.217  1.1499  0.4966 -0.5498
 3844SOL    HW211589   1.712   2.405   3.113  0.3674 -1.1706  0.1288
 3845SOL     OW11590   2.634  -0.007   1.927 -0.0061  0.0612  0.0654
 3845SOL    HW111591   2.672   0.079   1.910 -0.0645 -0.1423 -1.1704
 3845SOL    HW211592   2.566   0.010   1.993  0.6766  0.7819  0.6011
 3846SOL     OW11593   1.397   3.986   2.569 -0.3743 -0.4585  0.5853
 3846SOL    HW111594   1.405   4.030   2.485 -2.1495 -1.2900 -0.0594
 3846SOL    HW211595   1.445   4.042   2.630  3.3517 -1.1815 -1.3848
 3847SOL     OW11596   2.005   1.066   1.613 -0.0934 -0.4880 -0.2707
 3847SOL    HW111597   1.973   1.074   1.703  0.2133 -2.1633  0.0285
 3847SOL    HW211598   2.096   1.037   1.622  0.6314  1.3592 -1.1393
 3848SOL     OW11599   3.657   1.775   4.613 -0.1521 -0.1004  0.5745
 3848SOL    HW111600   3.574   1.802   4.654  0.1512  1.5332  0.1594
 3848SOL    HW211601   3.635   1.764   4.520  0.0542  0.1545  0.4964
 3849SOL     OW11602   4.623   2.519   4.975  0.0266 -0.2539  0.7340
 3849SOL    HW111603   4.579   2.512   4.891  0.7156  0.3315  0.3150
 3849SOL    HW211604   4.555   2.547   5.036 -0.0591  1.3072 -0.0373
 3850SOL     OW11605   2.161   0.672   3.131 -0.0480 -0.0974 -0.0704
 3850SOL    HW111606   2.090   0.628   3.177  0.0525  0.5983  0.7664
 3850SOL    HW211607   2.158   0.762   3.163  1.9161 -0.3077  0.8012
 3851SOL     OW11608   4.186   4.191   0.101  0.0483  0.0767  0.2847
 3851SOL    HW111609   4.183   4.214   0.008  1.1564 -1.3241 -0.1364
 3851SOL    HW211610   4.158   4.100   0.104  0.3977 -0.0059  1.2807
 3852SOL     OW11611   0.836   1.749   1.260  0.0627 -0.4780  0.0505
 3852SOL    HW111612   0.838   1.746   1.165 -0.5944  0.7838 -0.0166
 3852SOL    HW211613   0.749   1.782   1.282 -0.1244 -1.5880  1.1239
 3853SOL     OW11614   3.196   3.468   4.540 -0.2098  0.0890 -0.2286
 3853SOL    HW111615   3.101   3.462   4.540 -0.3796  1.7377 -2.2334
 3853SOL    HW211616   3.215   3.562   4.544  1.3654 -0.2123  0.3341
 3854SOL     OW11617   4.905   0.352   2.758  0.4571  0.5840 -0.0967
 3854SOL    HW111618   4.940   0.438   2.783  1.8548  0.0800 -0.2268
 3854SOL    HW211619   4.956   0.290   2.810 -2.6284 -0.1117  2.3748
 3855SOL     OW11620   1.669   3.614   1.162  0.0804 -0.4573  0.0304
 3855SOL    HW111621   1.585   3.656   1.180  0.9731  1.7965 -0.6868
 3855SOL    HW211622   1.726   3.641   1.234  0.5779 -0.7088 -0.2558
 3856SOL     OW11623   4.388   4.878   4.836  0.1436  0.5111  0.0520
 3856SOL    HW111624   4.476   4.901   4.865  0.2336 -1.1253  1.2503
 3856SOL    HW211625   4.400   4.847   4.746  1.4264 -2.6234  1.1412
 3857SOL     OW11626   1.195   3.298   0.087 -0.4734  0.5775  0.0885
 3857SOL    HW111627   1.113   3.320   0.131  0.5951 -0.1974  2.6750
 3857SOL    HW211628   1.238   3.236   0.146  1.2979 -0.2360 -1.9262
 3858SOL     OW11629   4.638   1.800   2.366 -0.5793 -0.5184 -0.2003
 3858SOL    HW111630   4.593   1.881   2.343 -0.2685  0.1537  1.4162
 3858SOL    HW211631   4.720   1.829   2.406 -0.5012 -1.6249  0.4740
 3859SOL     OW11632   3.261   2.556   2.599  0.0532  0.1141 -0.1474
 3859SOL    HW111633   3.286   2.476   2.646 -0.6486 -0.4425 -0.7005
 3859SOL    HW211634   3.317   2.624   2.636 -0.5274 -0.2801  1.5465
 3860SOL     OW11635   4.226   4.035   1.129  0.4315 -0.5266 -0.0228
 3860SOL    HW111636   4.133   4.033   1.151 -0.0705  0.5373 -1.8700
 3860SOL    HW211637   4.250   4.127   1.135  0.5200 -0.3200 -2.7223
 3861SOL     OW11638   2.001   0.100   1.734  0.1234  0.7711 -0.5351
 3861SOL    HW111639   2.000   0.192   1.707  0.7341  0.8827 -0.2168
 3861SOL    HW211640   1.992   0.103   1.829 -0.9110  0.4385 -0.6109
 3862SOL     OW11641   3.135   1.768   4.391  0.1648 -0.0689 -0.3660
 3862SOL    HW111642   3.059   1.774   4.334  0.3163 -1.1912 -0.7233
 3862SOL    HW211643   3.111   1.704   4.457  0.5549  0.0611 -0.0940
 3863SOL     OW11644   1.413   0.904   3.980 -0.4926  0.1853 -0.0471
 3863SOL    HW111645   1.470   0.870   4.050 -0.2274  3.4091  1.4751
 3863SOL    HW211646   1.335   0.934   4.025 -3.5205 -3.7815 -2.0706
 3864SOL     OW11647   2.674   0.861   2.234  0.0310 -0.1749  0.1911
 3864SOL    HW111648   2.583   0.836   2.221  0.3373 -0.9711 -0.5332
 3864SOL    HW211649   2.724   0.794   2.186  0.9206  1.2893 -1.0274
 3865SOL     OW11650   0.523   2.136   2.470 -0.0321 -0.3554  0.2821
 3865SOL    HW111651   0.451   2.096   2.420 -1.2019  0.9523  0.8638
 3865SOL    HW211652   0.592   2.069   2.469 -1.5374 -1.9922  0.3905
 3866SOL     OW11653   1.961   4.649   3.942 -0.2803 -0.3529  0.3373
 3866SOL    HW111654   2.023   4.643   3.869  0.2631 -1.1180  0.8475
 3866SOL    HW211655   1.880   4.681   3.902 -0.1180 -1.1757 -0.6747
 3867SOL     OW11656   1.100   2.336   3.602 -0.6901  0.4453  0.3070
 3867SOL    HW111657   1.052   2.253   3.612 -0.2970  0.2345  0.4699
 3867SOL    HW211658   1.049   2.400   3.650 -1.4093  0.4600 -0.4554
 3868SOL     OW11659   2.393   1.753   2.622 -0.4796  0.3190  0.0053
 3868SOL    HW111660   2.468   1.803   2.590 -0.3051 -0.4946 -0.8987
 3868SOL    HW211661   2.374   1.690   2.552 -1.5250  0.0055  0.5500
 3869SOL     OW11662   0.276   1.702   2.409  0.3667  0.1374  0.0586
 3869SOL    HW111663   0.243   1.731   2.494  0.0682  0.8695 -0.2980
 3869SOL    HW211664   0.261   1.607   2.408 -0.6068  0.2784  0.4021
 3870SOL     OW11665   2.808   4.126   4.223  0.5462  0.2942  0.0346
 3870SOL    HW111666   2.888   4.094   4.265  1.0913 -0.7734 -1.6820
 3870SOL    HW211667   2.797   4.069   4.147  1.2507  3.7612 -2.9734
 3871SOL     OW11668   1.484   2.073   4.135 -0.3700  0.4832 -0.5426
 3871SOL    HW111669   1.536   1.994   4.118  0.2761  0.5929  0.8044
 3871SOL    HW211670   1.402   2.041   4.172  0.4821  0.4406  1.4643
 3872SOL     OW11671   1.076   4.735   4.968 -0.2643  0.1794 -0.2797
 3872SOL    HW111672   1.076   4.641   4.986 -2.7167  0.1678 -0.0487
 3872SOL    HW211673   1.167   4.755   4.945  1.0046 -1.6830  2.4857
 3873SOL     OW11674   4.062   1.521   4.292  0.9772 -0.0291  0.0274
 3873SOL    HW111675   4.126   1.475   4.346 -0.5657 -0.7226  1.3658
 3873SOL    HW211676   4.057   1.470   4.211  1.5134 -0.4452  0.2523
 3874SOL     OW11677   3.551   0.238   3.367  0.2762  0.7056  0.1154
 3874SOL    HW111678   3.465   0.237   3.408  0.6503 -0.9373  0.9681
 3874SOL    HW211679   3.601   0.302   3.417  0.0802  0.3104  0.8242
 3875SOL     OW11680   4.422   2.205   3.560  0.3476  0.0929 -0.0531
 3875SOL    HW111681   4.395   2.137   3.498  0.6064  1.2152 -1.4727
 3875SOL    HW211682   4.340   2.245   3.589  0.2572  0.6127 -0.9627
 3876SOL     OW11683   2.960   2.654   3.488  0.5546 -0.2656 -0.1087
 3876SOL    HW111684   2.883   2.628   3.438 -0.0905 -1.0030  1.2012
 3876SOL    HW211685   3.032   2.606   3.448 -0.1648 -1.8896  0.4688
 3877SOL     OW11686   1.487   3.527   4.552 -0.4074  0.5233 -0.2700
 3877SOL    HW111687   1.571   3.531   4.598  0.2843  0.5921 -1.4863
 3877SOL    HW211688   1.448   3.445   4.581  0.0948  0.4735  0.2910
 3878SOL     OW11689   3.044   0.005   4.181 -0.0944  0.0693 -0.3143
 3878SOL    HW111690   3.002   0.087   4.156  0.3283  0.5265  0.4470
 3878SOL    HW211691   3.000  -0.021   4.262  0.7210  0.2920  0.2140
 3879SOL     OW11692   2.941   1.969   4.723 -0.0576  0.8350  0.3157
 3879SOL    HW111693   2.850   1.961   4.752 -0.7300 -0.4831 -1.9043
 3879SOL    HW211694   2.940   2.043   4.661 -0.2452 -0.7608 -1.6833
 3880SOL     OW11695   1.236   2.229   1.553  0.5733 -0.0522  0.2940
 3880SOL    HW111696   1.210   2.295   1.489  1.5223 -0.5812 -0.6831
 3880SOL    HW211697   1.154   2.198   1.590  0.0690  1.0939  0.1822
 3881SOL     OW11698   3.686   3.049   2.012  0.5070  0.4595 -0.3967
 3881SOL    HW111699   3.697   3.119   2.077 -0.8930  0.5898 -0.2785
 3881SOL    HW211700   3.610   3.000   2.043  0.3542  0.0029 -1.4809
 3882SOL     OW11701   4.375   1.142   4.809 -0.6741  0.8607  0.6847
 3882SOL    HW111702   4.318   1.162   4.883  2.2430  3.2660  2.5114
 3882SOL    HW211703   4.372   1.222   4.755 -0.1575  0.4448  0.0353
 3883SOL     OW11704   2.773   3.830   3.781 -0.2433  0.2211  0.2026
 3883SOL    HW111705   2.792   3.736   3.780 -1.8159 -0.1415  0.8699
 3883SOL    HW211706   2.706   3.841   3.713  0.8372  1.0953 -0.7505
 3884SOL     OW11707   3.944   1.543   0.067  0.0942  0.0543 -0.1788
 3884SOL    HW111708   3.996   1.550   0.147  0.6994 -2.0820 -0.3109
 3884SOL    HW211709   4.009   1.537  -0.003 -0.4300  1.6862 -0.8503
 3885SOL     OW11710   3.927   3.837   3.367 -0.2739  0.1410  0.7364
 3885SOL    HW111711   3.863   3.766   3.354  0.0416 -0.2585  1.3234
 3885SOL    HW211712   3.989   3.802   3.431  1.2524  0.0652 -0.7159
 3886SOL     OW11713   2.824   0.654   0.337  0.2848 -0.6168 -0.3069
 3886SOL    HW111714   2.907   0.642   0.384 -0.0222 -1.2299  0.0954
 3886SOL    HW211715   2.768   0.701   0.399  0.5357  0.4048 -0.8256
 3887SOL     OW11716   3.136   3.009   4.630  0.2380  0.1657 -0.6306
 3887SOL    HW111717   3.178   2.932   4.670 -0.5708 -0.3113 -0.6802
 3887SOL    HW211718   3.107   3.062   4.704 -0.2849 -0.1796 -0.5839
 3888SOL     OW11719   0.394   3.754   3.752  0.3507  0.1807 -0.0564
 3888SOL    HW111720   0.361   3.717   3.833 -2.0189 -0.2189 -1.1078
 3888SOL    HW211721   0.485   3.726   3.748  0.1135 -1.0282  1.7365
 3889SOL     OW11722   3.840   0.217   0.845  0.2894 -0.1024 -0.4346
 3889SOL    HW111723   3.901   0.240   0.775  0.3248 -0.8944 -0.6755
 3889SOL    HW211724   3.878   0.257   0.924  2.2006 -2.1738 -0.2078
 3890SOL     OW11725   0.721   1.086   3.930  0.2669  0.1273 -0.2246
 3890SOL    HW111726   0.663   1.074   3.855 -0.6455  0.3894  0.4341
 3890SOL    HW211727   0.713   1.178   3.952 -0.4303 -0.1999  0.9605
 3891SOL     OW11728   4.754   2.834   1.830 -0.5854  0.2449  0.2881
 3891SOL    HW111729   4.771   2.914   1.880  0.3160  0.7998 -0.8434
 3891SOL    HW211730   4.664   2.843   1.799 -1.4226 -0.4593  2.3717
 3892SOL     OW11731   4.432   4.446   1.660  0.1024  0.1926  1.2264
 3892SOL    HW111732   4.352   4.466   1.709 -0.4958 -0.4276  0.5323
 3892SOL    HW211733   4.468   4.532   1.637 -2.4545  0.6577 -1.7638
 3893SOL     OW11734   1.608   0.082   3.335 -0.2608  0.3915 -0.1118
 3893SOL    HW111735   1.631   0.046   3.421  4.2052 -0.1122 -1.2515
 3893SOL    HW211736   1.663   0.160   3.327 -1.3098  0.9780 -2.1503
 3894SOL     OW11737   1.003   0.685   0.018  0.2640  0.0490  0.4266
 3894SOL    HW111738   0.947   0.672  -0.059 -0.7952 -0.5109  1.2668
 3894SOL    HW211739   0.999   0.602   0.065  1.5865  0.0994  0.6679
 3895SOL     OW11740   1.218   2.630   2.511  1.0656 -0.4936  0.1996
 3895SOL    HW111741   1.179   2.543   2.503 -0.5090  0.1500  0.5237
 3895SOL    HW211742   1.265   2.643   2.429 -0.5444 -0.7973 -0.8248
 3896SOL     OW11743   1.820   3.191   1.471  0.1095  0.3436  0.7208
 3896SOL    HW111744   1.818   3.166   1.563 -1.7267  1.0296  0.8974
 3896SOL    HW211745   1.766   3.270   1.466  1.3391  1.1553 -0.7202
 3897SOL     OW11746   1.341   1.322   2.311 -0.1906 -0.0952  0.1545
 3897SOL    HW111747   1.368   1.376   2.237 -0.7010  1.9324  1.3600
 3897SOL    HW211748   1.321   1.237   2.273  0.4809  0.5931 -1.8695
 3898SOL     OW11749   2.539   1.287   4.485 -0.3116 -0.6415 -0.8322
 3898SOL    HW111750   2.623   1.283   4.530 -1.5431 -0.1200  1.6711
 3898SOL    HW211751   2.516   1.196   4.467 -0.9353 -1.1240  1.9917
 3899SOL     OW11752   1.354   3.125   3.584  0.3144 -0.3529  0.1036
 3899SOL    HW111753   1.314   3.086   3.662  0.1869  1.8404  1.2144
 3899SOL    HW211754   1.446   3.098   3.588 -0.0782 -1.7546 -0.0076
 3900SOL     OW11755   1.263   3.752   2.617 -0.1221  0.1803  0.1695
 3900SOL    HW111756   1.308   3.837   2.616 -0.4189  0.3426  0.5486
 3900SOL    HW211757   1.303   3.705   2.690 -0.1893  0.1198  0.1671
 3901SOL     OW11758   1.493   4.656   4.046 -0.6828  0.2391 -0.2837
 3901SOL    HW111759   1.435   4.629   3.974 -1.7523  0.5188  0.4576
 3901SOL    HW211760   1.448   4.628   4.125  0.5980 -0.2814  0.2936
 3902SOL     OW11761   0.546   3.271   0.595  0.0631  0.3449 -0.3243
 3902SOL    HW111762   0.466   3.324   0.599 -0.3391 -0.1057 -1.8664
 3902SOL    HW211763   0.520   3.186   0.632 -0.0670  0.3149 -0.4832
 3903SOL     OW11764   3.392   1.144   3.855  0.7976 -0.1041  0.1288
 3903SOL    HW111765   3.303   1.110   3.852  0.0836  1.6767 -0.2931
 3903SOL    HW211766   3.401   1.178   3.944  0.8348  0.2357 -0.0028
 3904SOL     OW11767   0.506   0.211   3.190 -0.3690  0.0286  0.1386
 3904SOL    HW111768   0.587   0.184   3.148 -1.4144 -0.4082 -1.7380
 3904SOL    HW211769   0.490   0.299   3.156 -0.8064 -0.0009  0.2651
 3905SOL     OW11770   2.120   1.694   2.037  0.1188 -0.5808  0.0776
 3905SOL    HW111771   2.152   1.781   2.014  0.7767 -0.9068 -0.2614
 3905SOL    HW211772   2.029   1.708   2.062  0.3392  0.2694  0.4362
 3906SOL     OW11773   0.270   1.163   3.548 -0.0924  0.1105 -0.3574
 3906SOL    HW111774   0.334   1.095   3.525  0.6470  1.1575 -1.5368
 3906SOL    HW211775   0.194   1.114   3.580  0.5471 -1.2663 -0.8407
 3907SOL     OW11776   3.202   3.743   1.871  0.7361  0.3378  0.0174
 3907SOL    HW111777   3.198   3.702   1.957 -0.3170 -0.0881 -0.2139
 3907SOL    HW211778   3.290   3.725   1.840  1.4786  1.3647  1.4074
 3908SOL     OW11779   3.231   1.708   1.873  0.8755  0.0314 -0.4470
 3908SOL    HW111780   3.279   1.769   1.930 -0.5268  1.6999 -0.9894
 3908SOL    HW211781   3.269   1.623   1.894  2.0501  0.8973  1.2573
 3909SOL     OW11782   2.479   1.207   2.104 -0.4080 -0.1261  0.8895
 3909SOL    HW111783   2.571   1.214   2.129 -0.1812  0.4612 -0.0474
 3909SOL    HW211784   2.473   1.123   2.059 -0.1559  0.1794  0.2789
 3910SOL     OW11785   4.867   3.086   4.641  0.1876 -0.1518 -0.6471
 3910SOL    HW111786   4.857   3.166   4.591  0.9054 -0.1437 -0.7823
 3910SOL    HW211787   4.887   3.115   4.730 -0.9417 -0.1678 -0.3740
 3911SOL     OW11788   0.148   1.864   0.475 -0.3654  0.1750 -0.5709
 3911SOL    HW111789   0.118   1.830   0.560  1.1520 -2.3059 -0.9467
 3911SOL    HW211790   0.237   1.894   0.491 -1.2481  3.0959 -0.5479
 3912SOL     OW11791   3.542   3.572   3.467  0.0957 -0.0135 -0.2504
 3912SOL    HW111792   3.633   3.545   3.469  0.0045 -0.6053 -2.3787
 3912SOL    HW211793   3.492   3.491   3.472 -0.2736  0.1736 -0.7816
 3913SOL     OW11794   1.496   3.029   1.001  0.2215 -0.5498  0.4108
 3913SOL    HW111795   1.482   3.107   1.054 -0.8125 -0.0751 -0.5213
 3913SOL    HW211796   1.591   3.018   0.997  0.3200 -0.5695  2.2786
 3914SOL     OW11797   2.322   4.328   3.228 -0.9297  0.1794  0.2532
 3914SOL    HW111798   2.289   4.285   3.149  0.0403 -2.2042  1.0603
 3914SOL    HW211799   2.243   4.351   3.277 -1.5078  0.0994 -0.6141
 3915SOL     OW11800   1.276   3.493   1.430 -0.3217 -0.0765  0.2425
 3915SOL    HW111801   1.311   3.404   1.428 -1.2893 -0.4718  0.2503
 3915SOL    HW211802   1.201   3.490   1.370  1.2182  1.4409 -1.8898
 3916SOL     OW11803   4.318   2.761   2.185 -0.6071  0.0602 -0.0821
 3916SOL    HW111804   4.237   2.715   2.208 -1.5075  1.5246 -0.1681
 3916SOL    HW211805   4.288   2.841   2.142  0.9247  0.1361 -1.0861
 3917SOL     OW11806   2.788   3.876   3.245 -0.0728  0.1711 -0.3275
 3917SOL    HW111807   2.798   3.792   3.200 -0.7002  1.0605 -2.2422
 3917SOL    HW211808   2.695   3.882   3.264 -0.1478  0.7049 -0.8197
 3918SOL     OW11809   1.648   0.618   4.046  0.0130  0.0517  0.3324
 3918SOL    HW111810   1.677   0.692   3.993 -1.2464 -0.8880 -1.7762
 3918SOL    HW211811   1.728   0.588   4.091  0.3790  3.2544  2.1346
 3919SOL     OW11812   1.856   3.118   1.726 -0.0707  0.3151  0.0886
 3919SOL    HW111813   1.801   3.071   1.788 -0.9484 -0.5084 -1.2658
 3919SOL    HW211814   1.860   3.208   1.760  0.6466 -0.4171  2.0667
 3920SOL     OW11815   4.963   1.296   0.143 -0.4583 -0.0895 -0.6791
 3920SOL    HW111816   4.917   1.378   0.163  1.3100  0.6238  0.8325
 3920SOL    HW211817   4.955   1.244   0.223  0.7638 -0.1942 -0.5990
 3921SOL     OW11818   0.562   4.321   0.179  0.5890 -0.3438 -0.0841
 3921SOL    HW111819   0.654   4.318   0.150  0.7374 -1.5962  0.4670
 3921SOL    HW211820   0.564   4.369   0.261  0.8909 -1.1395  0.3822
 3922SOL     OW11821   2.155   3.174   1.024  0.0008 -0.2746  0.3074
 3922SOL    HW111822   2.113   3.131   1.099 -0.0979  0.2364  0.5441
 3922SOL    HW211823   2.222   3.230   1.063  0.0101 -0.0760  0.0057
 3923SOL     OW11824   3.903   3.002   2.952  0.0446 -0.2683 -0.1876
 3923SOL    HW111825   3.874   2.965   3.035 -0.9949  1.3231  0.2050
 3923SOL    HW211826   3.998   3.009   2.961 -0.2156  2.0019  1.8562
 3924SOL     OW11827   4.140   0.567   0.555  0.0400  0.1271 -0.5515
 3924SOL    HW111828   4.099   0.608   0.478  0.4809 -0.9795 -1.3932
 3924SOL    HW211829   4.232   0.593   0.549  0.3373 -0.9900 -1.1258
 3925SOL     OW11830   4.568   2.694   1.477  0.2027 -0.5401 -0.3054
 3925SOL    HW111831   4.617   2.617   1.507  1.6247  0.7197  0.7886
 3925SOL    HW211832   4.624   2.768   1.501 -2.2552  1.0059  1.0649
 3926SOL     OW11833   0.237   3.397   1.993 -0.4101  0.2980 -0.0392
 3926SOL    HW111834   0.290   3.441   1.926  0.7811  0.5832  1.0459
 3926SOL    HW211835   0.195   3.469   2.041  0.6783  0.2405  1.0445
 3927SOL     OW11836   3.206   3.024   2.360 -0.2957  0.9944  0.2243
 3927SOL    HW111837   3.293   3.060   2.339 -0.2702  0.7008 -0.1952
 3927SOL    HW211838   3.223   2.962   2.432 -0.3646  1.9226  1.0500
 3928SOL     OW11839   4.717   3.817   4.899 -0.1211 -0.2430 -0.7507
 3928SOL    HW111840   4.714   3.874   4.976  1.1005 -1.4871  0.2744
 3928SOL    HW211841   4.740   3.731   4.934  0.0423 -0.9334 -2.4749
 3929SOL     OW11842   3.382   1.444   1.525 -0.4727 -0.1278 -0.4348
 3929SOL    HW111843   3.355   1.533   1.550 -0.2580  0.4068 -2.0335
 3929SOL    HW211844   3.321   1.419   1.456 -0.6742 -1.3333  0.1543
 3930SOL     OW11845   1.055   4.991   3.042  0.0749  0.4427 -0.4843
 3930SOL    HW111846   1.007   4.989   2.960  0.2332 -0.7285 -0.5622
 3930SOL    HW211847   1.128   4.930   3.029  0.0386  0.1597  0.5592
 3931SOL     OW11848   3.157   3.199   1.258 -0.6528  0.0810 -0.0397
 3931SOL    HW111849   3.180   3.203   1.165 -1.5451  2.7454 -0.2144
 3931SOL    HW211850   3.110   3.116   1.268 -1.9706  0.4829 -2.3249
 3932SOL     OW11851   4.599   3.790   0.552 -0.2905 -0.0921 -0.0450
 3932SOL    HW111852   4.642   3.749   0.477  0.2709  1.0987 -0.3875
 3932SOL    HW211853   4.524   3.836   0.515  1.3446  2.5634 -0.2995
 3933SOL     OW11854   2.103   3.860   1.312 -0.6538  0.6407 -0.9166
 3933SOL    HW111855   2.095   3.912   1.393  0.5368 -0.3942 -0.0937
 3933SOL    HW211856   2.016   3.821   1.300 -0.7094  0.3915  0.1768
 3934SOL     OW11857   4.684   3.003   2.805  0.3330 -0.4022 -0.2224
 3934SOL    HW111858   4.762   2.953   2.782 -0.6535 -0.9242 -2.6754
 3934SOL    HW211859   4.715   3.065   2.872  2.6583 -1.0776 -0.5771
 3935SOL     OW11860   0.846   0.452   0.603  0.1718 -0.7775  0.2631
 3935SOL    HW111861   0.815   0.487   0.520 -0.4500 -0.9904  0.4063
 3935SOL    HW211862   0.812   0.363   0.607  2.7267 -1.9038 -0.6525
 3936SOL     OW11863   1.197   2.309   2.061 -0.0223 -0.9985 -0.3970
 3936SOL    HW111864   1.142   2.386   2.048  1.1591 -0.2448 -1.1627
 3936SOL    HW211865   1.147   2.237   2.025 -0.1957 -0.2010 -1.8230
 3937SOL     OW11866   0.128   2.368   0.236 -0.5904 -0.1787 -0.2246
 3937SOL    HW111867   0.093   2.425   0.304  0.9998  1.7985 -0.9530
 3937SOL    HW211868   0.056   2.358   0.173 -0.7535  1.5275 -0.3505
 3938SOL     OW11869   4.882   0.032   0.032 -0.4249  0.1307 -0.6027
 3938SOL    HW111870   4.961   0.019   0.084 -0.1283  0.9107 -0.8512
 3938SOL    HW211871   4.911   0.017  -0.059 -0.7792 -0.5200 -0.6152
 3939SOL     OW11872   3.889   4.068   0.732  0.1920 -0.3912  0.3065
 3939SOL    HW111873   3.948   4.111   0.794 -0.3870 -0.9827  1.2946
 3939SOL    HW211874   3.947   4.031   0.666  0.6995  2.7738 -1.2519
 3940SOL     OW11875   2.712   3.491   4.192  0.4669  0.1797  0.4690
 3940SOL    HW111876   2.677   3.402   4.188  0.2477  0.0779  3.1754
 3940SOL    HW211877   2.640   3.544   4.227  1.1369  1.1091  0.4830
 3941SOL     OW11878   1.924   3.881   0.100 -0.3363  0.3141  0.2512
 3941SOL    HW111879   1.893   3.963   0.137 -0.7520 -1.1504  3.5806
 3941SOL    HW211880   1.999   3.857   0.156  0.3535 -1.1181 -1.2140
 3942SOL     OW11881   0.608   1.233   1.195 -1.1281  0.4250 -0.1113
 3942SOL    HW111882   0.669   1.160   1.206 -0.3800  0.7588 -1.7504
 3942SOL    HW211883   0.656   1.310   1.227 -1.5720  0.3562  0.7509
 3943SOL     OW11884   1.128   4.721   2.512 -0.3738  0.4061  0.2930
 3943SOL    HW111885   1.120   4.685   2.601 -0.0427  0.7158  0.4504
 3943SOL    HW211886   1.038   4.724   2.480 -0.4165 -0.4635  0.3133
 3944SOL     OW11887   2.850   4.231   2.993 -0.5680  0.1643 -0.1255
 3944SOL    HW111888   2.932   4.279   3.005 -0.4741  0.3315 -1.2821
 3944SOL    HW211889   2.805   4.238   3.077  2.7486 -4.1805  2.4660
 3945SOL     OW11890   2.431   4.845   2.568  0.3844 -0.2682 -0.0469
 3945SOL    HW111891   2.440   4.773   2.506 -1.1635  0.1946 -0.8637
 3945SOL    HW211892   2.490   4.823   2.640  0.4566 -1.9994 -0.5984
 3946SOL     OW11893   2.476   2.286   4.568 -0.4881  0.7922  0.7029
 3946SOL    HW111894   2.560   2.291   4.522 -0.3810  2.1378  1.0231
 3946SOL    HW211895   2.499   2.286   4.661 -0.8397  1.0934  0.7898
 3947SOL     OW11896   4.340   3.452   3.993  0.4087  0.4298 -0.3755
 3947SOL    HW111897   4.369   3.466   4.083 -0.9484  3.5716 -0.3109
 3947SOL    HW211898   4.274   3.383   3.999 -2.1119  2.8353  1.6725
 3948SOL     OW11899   2.071   0.989   3.723 -0.3959 -0.6881 -0.3377
 3948SOL    HW111900   2.050   0.969   3.814 -0.7160 -1.9144 -0.6614
 3948SOL    HW211901   2.039   1.078   3.710 -0.8352 -0.6963  0.5992
 3949SOL     OW11902   2.066   1.244   2.414  0.0772  0.0181  0.2852
 3949SOL    HW111903   2.059   1.279   2.326  2.2581  2.4577  0.9529
 3949SOL    HW211904   2.079   1.150   2.402 -1.2424  0.0553 -1.8715
 3950SOL     OW11905   2.650   2.707   0.449 -0.0040  0.2333 -0.2102
 3950SOL    HW111906   2.711   2.757   0.504 -0.0798 -0.4848  0.5355
 3950SOL    HW211907   2.565   2.716   0.492 -0.7548  2.2991 -1.9301
 3951SOL     OW11908   2.677   4.425   3.917  0.1441 -0.2787  0.4135
 3951SOL    HW111909   2.638   4.358   3.861  0.1299  0.9387 -1.1305
 3951SOL    HW211910   2.770   4.423   3.896  0.2949 -0.4897  1.1032
 3952SOL     OW11911   1.071   1.968   3.214  0.6590  0.4279  0.4975
 3952SOL    HW111912   1.043   2.059   3.225 -1.5707 -0.0087 -0.8438
 3952SOL    HW211913   1.088   1.960   3.120 -0.7638 -0.9072  0.3256
 3953SOL     OW11914   0.821   1.505   0.532  0.6021  0.1948  0.0133
 3953SOL    HW111915   0.741   1.522   0.482 -0.0641  0.3297  1.0809
 3953SOL    HW211916   0.878   1.458   0.472  0.4581  1.7133 -1.3691
 3954SOL     OW11917   2.283   0.011   4.898  0.1920  0.3292 -0.0372
 3954SOL    HW111918   2.333   0.017   4.979  1.3992 -0.5899 -0.6721
 3954SOL    HW211919   2.341   0.048   4.831 -1.7880  3.6406 -0.1784
 3955SOL     OW11920   3.142   0.256   2.843 -0.3455  0.0954 -0.2962
 3955SOL    HW111921   3.180   0.220   2.923 -0.8196 -0.5184 -0.3455
 3955SOL    HW211922   3.061   0.299   2.872  0.3361  1.3566 -0.1989
 3956SOL     OW11923   2.718   3.345   3.829  0.1313  0.0980 -0.5462
 3956SOL    HW111924   2.654   3.301   3.772 -0.2698  0.2120 -0.1887
 3956SOL    HW211925   2.774   3.274   3.860  0.2927  0.0207 -1.0047
 3957SOL     OW11926   3.905   3.194   0.338 -0.2279  0.2545 -0.7250
 3957SOL    HW111927   3.979   3.209   0.279  0.7614 -1.9196 -0.1192
 3957SOL    HW211928   3.935   3.224   0.423  0.0523 -0.8438 -0.4318
 3958SOL     OW11929   2.250   2.429   3.328 -0.5979 -0.1309  0.4639
 3958SOL    HW111930   2.300   2.501   3.289  0.5140 -0.3149  1.4741
 3958SOL    HW211931   2.186   2.472   3.385 -0.5243  0.0776  0.3893
 3959SOL     OW11932   1.747   4.126   4.511 -0.0994  0.0401 -0.2373
 3959SOL    HW111933   1.790   4.209   4.530 -0.4027  0.0424  0.4439
 3959SOL    HW211934   1.675   4.121   4.574  1.1049 -1.6470  1.1091
 3960SOL     OW11935   4.207   2.994   3.450  0.0412 -0.4186  0.3847
 3960SOL    HW111936   4.241   3.020   3.365 -0.3001  0.2473  0.4466
 3960SOL    HW211937   4.192   3.076   3.496  1.8459 -0.7820  1.7475
 3961SOL     OW11938   1.550   1.284   3.750  0.4412  0.4699  0.2042
 3961SOL    HW111939   1.503   1.241   3.679  1.4702  0.1306 -0.2894
 3961SOL    HW211940   1.604   1.216   3.789  0.7418  0.9105  0.5744
 3962SOL     OW11941   2.173   0.318   4.710 -0.3291  0.8356 -0.2060
 3962SOL    HW111942   2.100   0.260   4.687  0.3632 -0.4327  0.6224
 3962SOL    HW211943   2.137   0.376   4.777 -0.3971 -0.3222  0.8001
 3963SOL     OW11944   0.862   4.180   4.652 -0.5038 -0.1395  0.3801
 3963SOL    HW111945   0.781   4.166   4.700 -0.9111 -1.8396 -0.7184
 3963SOL    HW211946   0.909   4.097   4.659  0.1683  0.1204 -0.7614
 3964SOL     OW11947   0.677   3.140   3.814 -0.5625 -0.1794 -0.1086
 3964SOL    HW111948   0.621   3.132   3.891 -0.2371  0.6434  0.2223
 3964SOL    HW211949   0.621   3.182   3.748 -1.2582 -2.0624 -0.7852
 3965SOL     OW11950   3.213   4.179   4.515  0.0631  0.1804 -0.3268
 3965SOL    HW111951   3.229   4.224   4.432  0.1391 -1.4519 -1.2314
 3965SOL    HW211952   3.298   4.141   4.538 -0.1207  0.0467  0.1515
 3966SOL     OW11953   0.766   1.493   1.290  0.4502 -0.1362 -0.0208
 3966SOL    HW111954   0.788   1.586   1.292 -0.4254  0.0718  0.4083
 3966SOL    HW211955   0.725   1.476   1.375 -0.1419 -0.7269 -0.4096
 3967SOL     OW11956   3.754   2.550   4.243 -0.0966  0.2609  0.4304
 3967SOL    HW111957   3.727   2.459   4.251  1.9751 -0.4296  0.0449
 3967SOL    HW211958   3.721   2.578   4.158 -0.3198 -0.2830  0.3369
 3968SOL     OW11959   2.953   1.868   0.177 -0.6300 -0.0964  0.2578
 3968SOL    HW111960   2.943   1.854   0.271  0.4987 -2.1125  0.1150
 3968SOL    HW211961   3.031   1.819   0.153 -1.4164 -0.3861 -1.9116
 3969SOL     OW11962   0.044   1.548   1.310 -0.3903  0.0672 -0.1793
 3969SOL    HW111963  -0.029   1.578   1.363  0.3650  0.6254  0.5762
 3969SOL    HW211964   0.077   1.627   1.267 -0.2660 -0.1869 -0.5595
 3970SOL     OW11965   0.103   1.883   1.410 -0.0946  0.8136  0.0874
 3970SOL    HW111966   0.009   1.881   1.392 -0.0608 -2.6939 -0.3645
 3970SOL    HW211967   0.110   1.880   1.505 -0.4772 -0.3910  0.0859
 3971SOL     OW11968   3.950   2.963   2.178 -0.4533  0.0682 -0.3385
 3971SOL    HW111969   3.871   2.960   2.123  0.0209  2.0783 -1.2373
 3971SOL    HW211970   3.999   2.884   2.155 -1.4899 -0.4303 -0.8901
 3972SOL     OW11971   3.786   2.174   2.737 -0.0063 -0.1557  0.3836
 3972SOL    HW111972   3.839   2.156   2.815  2.9465  3.0114 -0.6448
 3972SOL    HW211973   3.832   2.129   2.666  1.8609  3.0580 -0.6102
 3973SOL     OW11974   2.802   0.823   3.721  0.6442 -0.3270 -0.2196
 3973SOL    HW111975   2.837   0.735   3.708  0.3863 -0.3711 -0.6314
 3973SOL    HW211976   2.739   0.835   3.649  0.6436  0.1750 -0.1395
 3974SOL     OW11977   0.429   3.862   1.584  0.2354  0.2721  0.1179
 3974SOL    HW111978   0.505   3.846   1.529 -1.1695 -0.9470 -1.5832
 3974SOL    HW211979   0.397   3.947   1.557 -1.0943 -0.7888 -1.8599
 3975SOL     OW11980   0.205   2.089   4.938 -0.1579 -0.2713 -0.3536
 3975SOL    HW111981   0.145   2.014   4.936 -1.8681  1.0603 -1.5260
 3975SOL    HW211982   0.273   2.063   5.001 -0.6192 -2.8253 -0.8015
 3976SOL     OW11983   1.086   0.818   4.659 -0.4161  0.4096  0.0888
 3976SOL    HW111984   1.160   0.859   4.614  0.4672  0.5212  1.5793
 3976SOL    HW211985   1.017   0.814   4.592  0.5523  1.3168 -1.0223
 3977SOL     OW11986   4.444   1.637   0.429  0.4255 -0.3655 -0.3104
 3977SOL    HW111987   4.456   1.685   0.347  1.9838 -0.8505 -0.3947
 3977SOL    HW211988   4.460   1.702   0.497  0.7522 -0.3478 -0.4038
 3978SOL     OW11989   2.245   3.385   1.870  0.3202  0.1063  0.0640
 3978SOL    HW111990   2.201   3.455   1.822 -0.2476 -1.1675 -1.3451
 3978SOL    HW211991   2.230   3.406   1.963 -0.5241  1.3888 -0.3368
 3979SOL     OW11992   1.061   1.023   0.435 -0.5789  0.3866  0.6294
 3979SOL    HW111993   1.085   0.988   0.350 -0.2666  0.4060  0.7093
 3979SOL    HW211994   1.009   0.953   0.476 -0.9082  0.4594  0.3440
 3980SOL     OW11995   4.176   0.067   2.232  0.3086 -0.2387  0.4918
 3980SOL    HW111996   4.238   0.122   2.185 -1.7793  1.1307 -0.8290
 3980SOL    HW211997   4.196   0.081   2.325  2.0453  0.0090  0.0971
 3981SOL     OW11998   1.503   0.068   0.769  0.4356  0.3346 -0.2200
 3981SOL    HW111999   1.425   0.109   0.730  0.1873 -1.3286 -1.5607
 3981SOL    HW212000   1.575   0.096   0.712  0.8425  1.6887  0.8912
 3982SOL     OW12001   3.792   2.264   1.433 -0.0357 -0.1224 -0.1859
 3982SOL    HW112002   3.846   2.209   1.491  0.6775 -0.0745 -0.7929
 3982SOL    HW212003   3.702   2.251   1.465  0.2569 -0.7139  0.4276
 3983SOL     OW12004   3.165   4.588   1.668 -0.1726  0.2264 -0.2307
 3983SOL    HW112005   3.076   4.621   1.661 -0.1277  0.2494 -0.7337
 3983SOL    HW212006   3.195   4.617   1.754 -1.3831 -1.5925  0.8842
 3984SOL     OW12007   4.215   3.034   0.136  0.6743 -0.5716 -0.4454
 3984SOL    HW112008   4.237   3.118   0.177  3.8894 -1.5205  0.0899
 3984SOL    HW212009   4.137   3.053   0.083  0.2516  2.2903  0.9906
 3985SOL     OW12010   1.340   3.699   3.738 -0.2301  0.2946  0.3983
 3985SOL    HW112011   1.356   3.609   3.711 -1.5593  0.2355 -0.2747
 3985SOL    HW212012   1.427   3.735   3.755  0.4176 -0.6957 -0.7068
 3986SOL     OW12013   3.502   3.504   4.374 -0.0640 -0.0505  0.1275
 3986SOL    HW112014   3.450   3.557   4.313 -1.3053 -1.0637  0.2746
 3986SOL    HW212015   3.446   3.494   4.451  0.9814  0.1346  0.9386
 3987SOL     OW12016   3.396   1.456   2.539  0.4080 -0.3913 -0.3617
 3987SOL    HW112017   3.362   1.445   2.450 -0.3545 -0.4973 -0.0605
 3987SOL    HW212018   3.369   1.376   2.585 -1.3196  0.6896  0.6294
 3988SOL     OW12019   0.024   4.488   4.360  0.0654 -0.5316  0.1047
 3988SOL    HW112020  -0.021   4.544   4.423  2.2489  1.6194 -0.1219
 3988SOL    HW212021   0.117   4.504   4.375  0.7443 -2.5448 -1.4231
 3989SOL     OW12022   4.000   2.577   2.546  0.2420 -0.7093  0.3927
 3989SOL    HW112023   3.975   2.664   2.578  1.1155 -0.6069  0.8193
 3989SOL    HW212024   3.919   2.526   2.552 -0.2499  0.0313  0.2599
 3990SOL     OW12025   2.222   4.682   0.516  0.2262 -0.1594 -0.1146
 3990SOL    HW112026   2.267   4.764   0.537  0.5681 -0.1146 -0.9716
 3990SOL    HW212027   2.234   4.672   0.421 -0.7972 -0.6168 -0.2101
 3991SOL     OW12028   2.842   4.428   2.772  0.1990  0.3118  0.1735
 3991SOL    HW112029   2.892   4.481   2.833 -0.7769  1.7519 -0.2327
 3991SOL    HW212030   2.838   4.341   2.813  1.4278  0.6574  1.0666
 3992SOL     OW12031   2.708   4.843   0.367 -0.1778 -0.0737 -0.0353
 3992SOL    HW112032   2.735   4.827   0.276  1.4765  0.1189  0.3950
 3992SOL    HW212033   2.747   4.927   0.389 -1.3599  0.3399  0.5877
 3993SOL     OW12034   1.326   1.829   3.894 -0.2933  0.3982 -0.0833
 3993SOL    HW112035   1.237   1.851   3.867  0.6394  1.0396 -3.0520
 3993SOL    HW212036   1.320   1.738   3.924 -2.1686  0.9020  1.2145
 3994SOL     OW12037   1.951   0.719   4.479 -0.2208 -0.3030 -0.1788
 3994SOL    HW112038   1.920   0.659   4.410  3.9163 -1.9765 -0.8917
 3994SOL    HW212039   1.909   0.687   4.559 -0.9201 -1.8600 -1.1089
 3995SOL     OW12040   3.296   4.404   2.193  0.7251 -0.9396 -0.3049
 3995SOL    HW112041   3.369   4.457   2.160  0.4639  0.4348  1.2254
 3995SOL    HW212042   3.218   4.451   2.164  0.4431 -1.6385 -0.7063
 3996SOL     OW12043   4.347   1.265   3.614 -0.1321 -0.1263 -0.5506
 3996SOL    HW112044   4.295   1.345   3.625  3.0967  1.8377  2.5798
 3996SOL    HW212045   4.311   1.203   3.677  0.2193  0.6292  0.4173
 3997SOL     OW12046   1.189   3.107   0.276 -0.2021 -0.0405 -0.3220
 3997SOL    HW112047   1.262   3.048   0.298 -0.0160 -0.0467 -0.9381
 3997SOL    HW212048   1.120   3.084   0.339  0.0583 -0.5562 -0.2185
 3998SOL     OW12049   2.657   2.987   3.373  0.6606 -0.3157 -0.2172
 3998SOL    HW112050   2.637   2.922   3.305  0.8153  0.5529 -1.1141
 3998SOL    HW212051   2.576   3.038   3.382 -0.1200 -1.7776  1.8468
 3999SOL     OW12052   4.184   1.032   2.899  0.4300  0.0971  0.3184
 3999SOL    HW112053   4.125   0.956   2.899  0.9398 -0.3141 -0.7977
 3999SOL    HW212054   4.127   1.106   2.876 -0.0748  0.0840  1.4360
 4000SOL     OW12055   4.132   2.001   4.754  0.1891 -0.1433  0.0190
 4000SOL    HW112056   4.196   1.947   4.709 -0.2043 -0.8976  0.3475
 4000SOL    HW212057   4.150   1.988   4.847  0.3834  0.6550  0.1016
 4001SOL     OW12058   2.990   0.200   3.697  0.8042 -0.1568  0.0181
 4001SOL    HW112059   3.037   0.155   3.627  0.2950  0.5649 -0.8012
 4001SOL    HW212060   2.917   0.142   3.718  0.9781 -0.3913 -0.0215
 4002SOL     OW12061   2.490   1.448   0.863  0.1149 -0.0038 -0.4766
 4002SOL    HW112062   2.511   1.531   0.820 -2.6343  0.1915 -1.6646
 4002SOL    HW212063   2.530   1.381   0.807 -0.0881  0.4092 -1.1248
 4003SOL     OW12064   1.889   0.545   4.080  0.1943 -0.1163  0.3464
 4003SOL    HW112065   1.884   0.496   3.998  0.3593  0.9895 -0.3527
 4003SOL    HW212066   1.963   0.605   4.067  0.0448  0.2581  1.1926
 4004SOL     OW12067   4.567   1.986   3.282 -0.0525 -0.3725  0.7000
 4004SOL    HW112068   4.567   2.077   3.253 -0.6879 -0.6800 -0.3257
 4004SOL    HW212069   4.658   1.969   3.307  0.5005  0.0215 -0.8896
 4005SOL     OW12070   2.584   4.024   1.741 -0.5676  0.1870  0.3153
 4005SOL    HW112071   2.560   4.037   1.833  0.5148 -0.5646  0.7188
 4005SOL    HW212072   2.548   3.938   1.719 -0.4153  0.1595  0.1734
 4006SOL     OW12073   3.584   3.244   0.462 -0.2427  0.2769 -0.3222
 4006SOL    HW112074   3.637   3.166   0.479 -0.9292 -0.8349 -2.7607
 4006SOL    HW212075   3.647   3.316   0.465  0.7075 -0.5534  0.4900
 4007SOL     OW12076   2.946   4.716   4.900 -0.1786 -0.1750  0.2343
 4007SOL    HW112077   2.923   4.779   4.832 -0.5853  0.4405  0.9281
 4007SOL    HW212078   3.028   4.751   4.937 -0.4971  0.0474  0.7354
 4008SOL     OW12079   2.693   1.942   3.623  0.5363  0.1666 -0.3461
 4008SOL    HW112080   2.756   1.876   3.594  0.5240  0.2824 -0.6348
 4008SOL    HW212081   2.608   1.905   3.601  0.5696  0.8113 -1.6405
 4009SOL     OW12082   2.079   2.891   0.214 -0.0377 -0.7008  0.1271
 4009SOL    HW112083   2.005   2.931   0.169 -1.2015 -2.0040  0.8150
 4009SOL    HW212084   2.101   2.954   0.283 -0.3655 -0.2135 -0.2034
 4010SOL     OW12085   2.410   0.364   4.902 -0.1844 -0.3199 -0.1515
 4010SOL    HW112086   2.479   0.318   4.855 -1.0181 -2.8147  0.8956
 4010SOL    HW212087   2.331   0.348   4.850 -0.2377  1.3964 -0.6487
 4011SOL     OW12088   1.721   1.191   1.507 -0.5629 -0.1532 -0.3230
 4011SOL    HW112089   1.743   1.261   1.445 -0.7368  0.8216  0.6692
 4011SOL    HW212090   1.783   1.121   1.488  1.4078  1.3100  0.3606
 4012SOL     OW12091   3.206   1.105   2.339 -0.4996 -0.2375 -0.2975
 4012SOL    HW112092   3.150   1.102   2.261  2.0253  0.3544 -2.2592
 4012SOL    HW212093   3.253   1.022   2.338 -0.9555 -0.5480  1.0816
 4013SOL     OW12094   3.363   1.463   1.972  0.4003 -0.4921 -0.1102
 4013SOL    HW112095   3.425   1.490   1.905 -0.1115 -0.8923 -0.7636
 4013SOL    HW212096   3.417   1.435   2.046  0.9665  0.2441 -0.2363
 4014SOL     OW12097   4.306   2.277   1.620 -0.2723 -0.3604  0.4117
 4014SOL    HW112098   4.380   2.322   1.659 -0.5056 -0.9373  1.5716
 4014SOL    HW212099   4.237   2.281   1.687 -0.1727 -2.7468  0.7418
 4015SOL     OW12100   4.141   3.792   0.418 -0.0358  0.3054 -0.1809
 4015SOL    HW112101   4.124   3.698   0.417  0.8587  0.1425 -0.8370
 4015SOL    HW212102   4.086   3.825   0.489  2.7721 -1.3251  3.0017
 4016SOL     OW12103   4.498   3.989   0.899 -0.3270  0.2498  0.2917
 4016SOL    HW112104   4.546   3.986   0.982  1.9608  0.1159 -0.9327
 4016SOL    HW212105   4.490   3.897   0.873 -1.4790  0.2595  0.5674
 4017SOL     OW12106   4.704   0.409   3.636 -0.3754 -0.2574 -0.5594
 4017SOL    HW112107   4.662   0.495   3.632 -0.6579 -0.3150  0.6489
 4017SOL    HW212108   4.725   0.388   3.545  0.5972  1.5247 -0.7891
 4018SOL     OW12109   2.654   4.962   3.895 -0.1143  0.0715 -0.1198
 4018SOL    HW112110   2.723   5.028   3.891 -0.8583  0.8123 -1.2499
 4018SOL    HW212111   2.700   4.879   3.878  0.5885  0.4861 -0.2751
 4019SOL     OW12112   0.263   0.975   1.577  0.0690  0.0757 -0.1838
 4019SOL    HW112113   0.333   0.990   1.641  0.4290  1.9421 -0.9656
 4019SOL    HW212114   0.211   0.905   1.616 -0.0591  1.4978  2.4895
 4020SOL     OW12115   2.172   0.147   3.311 -0.6419  0.4800  0.0564
 4020SOL    HW112116   2.105   0.162   3.244 -0.4571  1.5531  0.0964
 4020SOL    HW212117   2.237   0.091   3.269 -0.8159  0.6772 -0.4777
 4021SOL     OW12118   3.471   1.584   3.548  0.2784 -0.1634  0.8915
 4021SOL    HW112119   3.507   1.617   3.630 -1.4593  1.4214  1.0731
 4021SOL    HW212120   3.521   1.629   3.480  0.3778  0.0450  1.1012
 4022SOL     OW12121   0.048   1.520   3.727 -0.2615  0.0147 -0.1128
 4022SOL    HW112122  -0.015   1.458   3.692 -0.5263  0.4946 -0.5018
 4022SOL    HW212123   0.130   1.499   3.682 -0.1921 -0.4707  0.2368
 4023SOL     OW12124   2.701   1.454   1.842  0.7520 -0.3069  0.0647
 4023SOL    HW112125   2.633   1.474   1.778  1.2267  2.6959  0.3359
 4023SOL    HW212126   2.724   1.362   1.826 -3.3678 -1.5223  0.0603
 4024SOL     OW12127   2.903   2.175   0.908 -0.0926 -0.4500  0.1181
 4024SOL    HW112128   2.811   2.181   0.881 -0.1940  0.9631  0.6702
 4024SOL    HW212129   2.905   2.102   0.970 -0.5864 -1.3026 -0.8613
 4025SOL     OW12130   4.238   2.377   3.323  0.1740 -0.2977  0.0317
 4025SOL    HW112131   4.149   2.397   3.295  0.4857  1.4132  0.1596
 4025SOL    HW212132   4.244   2.281   3.318 -1.7310 -0.4659  0.2439
 4026SOL     OW12133   3.242   2.770   4.732 -0.1941  0.6182 -0.3067
 4026SOL    HW112134   3.336   2.772   4.716 -0.4810 -0.3377 -2.4887
 4026SOL    HW212135   3.232   2.714   4.809  1.0031  0.5440 -0.1920
 4027SOL     OW12136   3.261   3.759   3.378 -0.5860 -0.2449 -0.3041
 4027SOL    HW112137   3.292   3.845   3.349 -1.4926  0.3236  0.3740
 4027SOL    HW212138   3.295   3.749   3.466 -2.3246  0.4332  0.4953
 4028SOL     OW12139   3.912   3.946   2.547  0.3367  0.1948 -0.3847
 4028SOL    HW112140   3.890   3.873   2.489 -0.7638  0.9996 -1.0172
 4028SOL    HW212141   4.007   3.939   2.559  0.2478 -1.3378 -0.4139
 4029SOL     OW12142   1.603   4.559   0.692  0.1635 -0.1512  0.2734
 4029SOL    HW112143   1.597   4.603   0.607 -0.5846 -1.3407 -0.3215
 4029SOL    HW212144   1.687   4.512   0.689  0.3961  0.2526  0.4207
 4030SOL     OW12145   2.749   4.182   2.114 -0.5399  0.2937 -0.4773
 4030SOL    HW112146   2.685   4.133   2.061 -0.2310  2.6494 -3.2907
 4030SOL    HW212147   2.828   4.128   2.111 -0.8271 -0.0966 -1.6300
 4031SOL     OW12148   3.664   4.671   0.726 -0.3901 -0.0510 -0.0432
 4031SOL    HW112149   3.748   4.677   0.679 -0.5963  2.5209 -0.2398
 4031SOL    HW212150   3.652   4.577   0.742  0.8240 -0.8545 -3.0688
 4032SOL     OW12151   1.271   1.395   4.722 -0.4121  0.3898 -0.2228
 4032SOL    HW112152   1.231   1.316   4.687  0.7073  0.2552 -1.2582
 4032SOL    HW212153   1.207   1.464   4.704 -1.0485 -0.1387 -0.0229
 4033NA      NA12154   0.745   3.212   2.186 -0.2710 -0.3413  0.1053
   4.97140   4.97140   4.97140
